/*--------------------------------*- C++ -*----------------------------------*\
| =========                 |                                                 |
| \\      /  F ield         | OpenFOAM: The Open Source CFD Toolbox           |
|  \\    /   O peration     | Version:  5.x                                   |
|   \\  /    A nd           | Web:      www.OpenFOAM.org                      |
|    \\/     M anipulation  |                                                 |
\*---------------------------------------------------------------------------*/
FoamFile
{
    version     2.0;
    format      ascii;
    class       volScalarField;
    location    "8";
    object      p;
}
// * * * * * * * * * * * * * * * * * * * * * * * * * * * * * * * * * * * * * //

dimensions      [0 2 -2 0 0 0 0];

internalField   nonuniform List<scalar> 
1920
(
-6731.1277
-6731.135
-6731.1184
-6731.1027
-6731.1028
-6731.1184
-6731.135
-6731.1277
-6731.1226
-6731.1293
-6731.1201
-6731.1097
-6731.1097
-6731.1202
-6731.1293
-6731.1226
-6731.1185
-6731.1249
-6731.1228
-6731.1173
-6731.1173
-6731.1228
-6731.1249
-6731.1185
-6731.1155
-6731.1236
-6731.1259
-6731.1237
-6731.1237
-6731.1259
-6731.1236
-6731.1155
-6731.1154
-6731.1247
-6731.1299
-6731.1297
-6731.1297
-6731.1299
-6731.1247
-6731.1154
-6731.1178
-6731.1281
-6731.1347
-6731.1358
-6731.1358
-6731.1347
-6731.1281
-6731.1178
-6731.1228
-6731.1332
-6731.1407
-6731.1426
-6731.1426
-6731.1407
-6731.1332
-6731.1228
-6731.1298
-6731.1401
-6731.1476
-6731.15
-6731.15
-6731.1476
-6731.1401
-6731.1298
-6731.1387
-6731.1483
-6731.1557
-6731.1582
-6731.1582
-6731.1557
-6731.1483
-6731.1387
-6731.1491
-6731.1579
-6731.1646
-6731.1671
-6731.1671
-6731.1646
-6731.1579
-6731.1491
-6731.1608
-6731.1684
-6731.1744
-6731.1767
-6731.1767
-6731.1744
-6731.1684
-6731.1608
-6731.1732
-6731.1798
-6731.1848
-6731.1869
-6731.1869
-6731.1848
-6731.1798
-6731.1733
-6731.1863
-6731.1917
-6731.1959
-6731.1977
-6731.1977
-6731.1959
-6731.1917
-6731.1864
-6731.1998
-6731.204
-6731.2075
-6731.209
-6731.209
-6731.2075
-6731.2041
-6731.1998
-6731.2134
-6731.2167
-6731.2194
-6731.2207
-6731.2207
-6731.2194
-6731.2167
-6731.2134
-6731.2271
-6731.2296
-6731.2316
-6731.2326
-6731.2326
-6731.2316
-6731.2296
-6731.2271
-6731.2407
-6731.2425
-6731.2441
-6731.2448
-6731.2448
-6731.2441
-6731.2425
-6731.2407
-6731.2542
-6731.2555
-6731.2566
-6731.2572
-6731.2572
-6731.2566
-6731.2555
-6731.2543
-6731.2677
-6731.2685
-6731.2693
-6731.2698
-6731.2698
-6731.2693
-6731.2685
-6731.2677
-6731.281
-6731.2815
-6731.2821
-6731.2824
-6731.2824
-6731.2821
-6731.2815
-6731.281
-6731.2941
-6731.2945
-6731.2949
-6731.2951
-6731.2951
-6731.2949
-6731.2945
-6731.2942
-6731.3072
-6731.3074
-6731.3077
-6731.3078
-6731.3078
-6731.3077
-6731.3075
-6731.3072
-6731.3202
-6731.3204
-6731.3205
-6731.3206
-6731.3206
-6731.3205
-6731.3204
-6731.3203
-6731.3332
-6731.3332
-6731.3333
-6731.3334
-6731.3334
-6731.3333
-6731.3333
-6731.3332
-6731.3461
-6731.3461
-6731.3462
-6731.3462
-6731.3462
-6731.3462
-6731.3461
-6731.3461
-6731.359
-6731.359
-6731.359
-6731.3591
-6731.3591
-6731.359
-6731.359
-6731.359
-6731.3718
-6731.3718
-6731.3718
-6731.3719
-6731.3719
-6731.3718
-6731.3718
-6731.3718
-6731.3846
-6731.3847
-6731.3847
-6731.3847
-6731.3847
-6731.3847
-6731.3847
-6731.3846
-6731.3975
-6731.3975
-6731.3975
-6731.3975
-6731.3975
-6731.3975
-6731.3975
-6731.3975
-6731.4103
-6731.4103
-6731.4104
-6731.4104
-6731.4104
-6731.4103
-6731.4103
-6731.4103
-6731.4231
-6731.4232
-6731.4232
-6731.4232
-6731.4232
-6731.4232
-6731.4232
-6731.4231
-6731.4359
-6731.436
-6731.436
-6731.436
-6731.436
-6731.436
-6731.436
-6731.4359
-6731.4488
-6731.4488
-6731.4489
-6731.4489
-6731.4489
-6731.4488
-6731.4488
-6731.4488
-6731.4616
-6731.4617
-6731.4617
-6731.4617
-6731.4617
-6731.4617
-6731.4616
-6731.4616
-6731.4745
-6731.4745
-6731.4745
-6731.4745
-6731.4745
-6731.4745
-6731.4745
-6731.4744
-6731.4873
-6731.4873
-6731.4874
-6731.4874
-6731.4874
-6731.4874
-6731.4873
-6731.4873
-6731.5001
-6731.5002
-6731.5002
-6731.5002
-6731.5002
-6731.5002
-6731.5002
-6731.5001
-6731.513
-6731.513
-6731.5131
-6731.5131
-6731.5131
-6731.5131
-6731.513
-6731.513
-6731.5258
-6731.5259
-6731.5259
-6731.5259
-6731.5259
-6731.5259
-6731.5259
-6731.5258
-6731.5387
-6731.5387
-6731.5388
-6731.5388
-6731.5388
-6731.5388
-6731.5387
-6731.5387
-6731.5516
-6731.5516
-6731.5516
-6731.5517
-6731.5517
-6731.5516
-6731.5516
-6731.5515
-6731.5644
-6731.5645
-6731.5645
-6731.5645
-6731.5645
-6731.5645
-6731.5645
-6731.5644
-6731.5773
-6731.5773
-6731.5774
-6731.5774
-6731.5774
-6731.5774
-6731.5773
-6731.5773
-6731.5902
-6731.5902
-6731.5902
-6731.5902
-6731.5902
-6731.5902
-6731.5902
-6731.5901
-6731.603
-6731.6031
-6731.6031
-6731.6031
-6731.6031
-6731.6031
-6731.6031
-6731.603
-6731.6159
-6731.6159
-6731.616
-6731.616
-6731.616
-6731.616
-6731.6159
-6731.6159
-6731.6288
-6731.6288
-6731.6288
-6731.6289
-6731.6289
-6731.6288
-6731.6288
-6731.6288
-6731.6416
-6731.6417
-6731.6417
-6731.6417
-6731.6417
-6731.6417
-6731.6417
-6731.6416
-6731.6545
-6731.6546
-6731.6546
-6731.6546
-6731.6546
-6731.6546
-6731.6546
-6731.6545
-6731.6674
-6731.6674
-6731.6675
-6731.6675
-6731.6675
-6731.6675
-6731.6674
-6731.6674
-6731.6803
-6731.6803
-6731.6804
-6731.6804
-6731.6804
-6731.6803
-6731.6803
-6731.6803
-6731.6932
-6731.6932
-6731.6932
-6731.6932
-6731.6932
-6731.6932
-6731.6932
-6731.6932
-6731.7061
-6731.7061
-6731.7061
-6731.7061
-6731.7061
-6731.7061
-6731.7061
-6731.706
-6731.7189
-6731.719
-6731.719
-6731.719
-6731.719
-6731.719
-6731.719
-6731.7189
-6731.7318
-6731.7319
-6731.7319
-6731.7319
-6731.7319
-6731.7319
-6731.7319
-6731.7318
-6731.7447
-6731.7448
-6731.7448
-6731.7448
-6731.7448
-6731.7448
-6731.7448
-6731.7447
-6731.7576
-6731.7577
-6731.7577
-6731.7577
-6731.7577
-6731.7577
-6731.7577
-6731.7576
-6731.7705
-6731.7706
-6731.7706
-6731.7706
-6731.7706
-6731.7706
-6731.7706
-6731.7705
-6731.7834
-6731.7835
-6731.7835
-6731.7835
-6731.7835
-6731.7835
-6731.7835
-6731.7834
-6731.7963
-6731.7964
-6731.7964
-6731.7964
-6731.7964
-6731.7964
-6731.7964
-6731.7963
-6731.8092
-6731.8093
-6731.8093
-6731.8093
-6731.8093
-6731.8093
-6731.8093
-6731.8092
-6731.8221
-6731.8222
-6731.8222
-6731.8222
-6731.8222
-6731.8222
-6731.8222
-6731.8221
-6731.835
-6731.8351
-6731.8351
-6731.8351
-6731.8351
-6731.8351
-6731.8351
-6731.835
-6731.8479
-6731.848
-6731.848
-6731.848
-6731.848
-6731.848
-6731.848
-6731.8479
-6731.8608
-6731.8609
-6731.8609
-6731.8609
-6731.8609
-6731.8609
-6731.8609
-6731.8608
-6731.8738
-6731.8738
-6731.8738
-6731.8738
-6731.8738
-6731.8738
-6731.8738
-6731.8738
-6731.8867
-6731.8867
-6731.8867
-6731.8867
-6731.8867
-6731.8867
-6731.8867
-6731.8867
-6731.8996
-6731.8996
-6731.8996
-6731.8996
-6731.8996
-6731.8996
-6731.8996
-6731.8996
-6731.9125
-6731.9125
-6731.9125
-6731.9126
-6731.9126
-6731.9125
-6731.9125
-6731.9125
-6731.9254
-6731.9254
-6731.9255
-6731.9255
-6731.9255
-6731.9255
-6731.9254
-6731.9254
-6731.9383
-6731.9384
-6731.9384
-6731.9384
-6731.9384
-6731.9384
-6731.9384
-6731.9383
-6731.9513
-6731.9513
-6731.9513
-6731.9513
-6731.9513
-6731.9513
-6731.9513
-6731.9513
-6731.9642
-6731.9642
-6731.9642
-6731.9642
-6731.9642
-6731.9642
-6731.9642
-6731.9642
-6731.9771
-6731.9771
-6731.9771
-6731.9771
-6731.9771
-6731.9771
-6731.9771
-6731.9771
-6731.99
-6731.99
-6731.9901
-6731.9901
-6731.9901
-6731.9901
-6731.99
-6731.99
-6732.0029
-6732.003
-6732.003
-6732.003
-6732.003
-6732.003
-6732.003
-6732.0029
-6732.0159
-6732.0159
-6732.0159
-6732.0159
-6732.0159
-6732.0159
-6732.0159
-6732.0159
-6732.0288
-6732.0288
-6732.0288
-6732.0288
-6732.0288
-6732.0288
-6732.0288
-6732.0288
-6732.0417
-6732.0417
-6732.0417
-6732.0418
-6732.0418
-6732.0417
-6732.0417
-6732.0417
-6732.0546
-6732.0547
-6732.0547
-6732.0547
-6732.0547
-6732.0547
-6732.0547
-6732.0546
-6732.0676
-6732.0676
-6732.0676
-6732.0676
-6732.0676
-6732.0676
-6732.0676
-6732.0676
-6732.0805
-6732.0805
-6732.0805
-6732.0805
-6732.0805
-6732.0805
-6732.0805
-6732.0805
-6732.0934
-6732.0934
-6732.0935
-6732.0935
-6732.0935
-6732.0935
-6732.0934
-6732.0934
-6732.1064
-6732.1064
-6732.1064
-6732.1064
-6732.1064
-6732.1064
-6732.1064
-6732.1064
-6732.1193
-6732.1193
-6732.1193
-6732.1193
-6732.1193
-6732.1193
-6732.1193
-6732.1193
-6732.1322
-6732.1322
-6732.1322
-6732.1322
-6732.1322
-6732.1322
-6732.1322
-6732.1322
-6732.1451
-6732.1452
-6732.1452
-6732.1452
-6732.1452
-6732.1452
-6732.1452
-6732.1451
-6732.1581
-6732.1581
-6732.1581
-6732.1581
-6732.1581
-6732.1581
-6732.1581
-6732.1581
-6732.171
-6732.171
-6732.171
-6732.171
-6732.171
-6732.171
-6732.171
-6732.171
-6732.1839
-6732.184
-6732.184
-6732.184
-6732.184
-6732.184
-6732.184
-6732.1839
-6732.1969
-6732.1969
-6732.1969
-6732.1969
-6732.1969
-6732.1969
-6732.1969
-6732.1969
-6732.2098
-6732.2098
-6732.2098
-6732.2098
-6732.2098
-6732.2098
-6732.2098
-6732.2098
-6732.2227
-6732.2228
-6732.2228
-6732.2228
-6732.2228
-6732.2228
-6732.2228
-6732.2227
-6732.2357
-6732.2357
-6732.2357
-6732.2357
-6732.2357
-6732.2357
-6732.2357
-6732.2357
-6732.2486
-6732.2486
-6732.2486
-6732.2486
-6732.2486
-6732.2486
-6732.2486
-6732.2486
-6732.2616
-6732.2616
-6732.2616
-6732.2616
-6732.2616
-6732.2616
-6732.2616
-6732.2616
-6732.2745
-6732.2745
-6732.2745
-6732.2745
-6732.2745
-6732.2745
-6732.2745
-6732.2745
-6732.2874
-6732.2874
-6732.2875
-6732.2875
-6732.2875
-6732.2875
-6732.2874
-6732.2874
-6732.3004
-6732.3004
-6732.3004
-6732.3004
-6732.3004
-6732.3004
-6732.3004
-6732.3004
-6732.3133
-6732.3133
-6732.3133
-6732.3133
-6732.3133
-6732.3133
-6732.3133
-6732.3133
-6732.3262
-6732.3263
-6732.3263
-6732.3263
-6732.3263
-6732.3263
-6732.3263
-6732.3262
-6732.3392
-6732.3392
-6732.3392
-6732.3392
-6732.3392
-6732.3392
-6732.3392
-6732.3392
-6732.3521
-6732.3521
-6732.3521
-6732.3521
-6732.3521
-6732.3521
-6732.3521
-6732.3521
-6732.3651
-6732.3651
-6732.3651
-6732.3651
-6732.3651
-6732.3651
-6732.3651
-6732.3651
-6732.378
-6732.378
-6732.378
-6732.378
-6732.378
-6732.378
-6732.378
-6732.378
-6732.3909
-6732.3909
-6732.391
-6732.391
-6732.391
-6732.391
-6732.3909
-6732.3909
-6732.4039
-6732.4039
-6732.4039
-6732.4039
-6732.4039
-6732.4039
-6732.4039
-6732.4039
-6732.4168
-6732.4168
-6732.4168
-6732.4168
-6732.4168
-6732.4168
-6732.4168
-6732.4168
-6732.4298
-6732.4298
-6732.4298
-6732.4298
-6732.4298
-6732.4298
-6732.4298
-6732.4298
-6732.4427
-6732.4427
-6732.4427
-6732.4427
-6732.4427
-6732.4427
-6732.4427
-6732.4427
-6732.4556
-6732.4557
-6732.4557
-6732.4557
-6732.4557
-6732.4557
-6732.4556
-6732.4556
-6732.4686
-6732.4686
-6732.4686
-6732.4686
-6732.4686
-6732.4686
-6732.4686
-6732.4686
-6732.4815
-6732.4815
-6732.4815
-6732.4815
-6732.4815
-6732.4815
-6732.4815
-6732.4815
-6732.4945
-6732.4945
-6732.4945
-6732.4945
-6732.4945
-6732.4945
-6732.4945
-6732.4945
-6732.5074
-6732.5074
-6732.5074
-6732.5074
-6732.5074
-6732.5074
-6732.5074
-6732.5074
-6732.5203
-6732.5203
-6732.5204
-6732.5204
-6732.5204
-6732.5204
-6732.5203
-6732.5203
-6732.5333
-6732.5333
-6732.5333
-6732.5333
-6732.5333
-6732.5333
-6732.5333
-6732.5333
-6732.5462
-6732.5462
-6732.5462
-6732.5462
-6732.5462
-6732.5462
-6732.5462
-6732.5462
-6732.5592
-6732.5592
-6732.5592
-6732.5592
-6732.5592
-6732.5592
-6732.5592
-6732.5592
-6732.5721
-6732.5721
-6732.5721
-6732.5721
-6732.5721
-6732.5721
-6732.5721
-6732.5721
-6732.585
-6732.5851
-6732.5851
-6732.5851
-6732.5851
-6732.5851
-6732.5851
-6732.585
-6732.598
-6732.598
-6732.598
-6732.598
-6732.598
-6732.598
-6732.598
-6732.598
-6732.6109
-6732.6109
-6732.6109
-6732.6109
-6732.6109
-6732.6109
-6732.6109
-6732.6109
-6732.6239
-6732.6239
-6732.6239
-6732.6239
-6732.6239
-6732.6239
-6732.6239
-6732.6239
-6732.6368
-6732.6368
-6732.6368
-6732.6368
-6732.6368
-6732.6368
-6732.6368
-6732.6368
-6732.6498
-6732.6498
-6732.6498
-6732.6498
-6732.6498
-6732.6498
-6732.6498
-6732.6498
-6732.6627
-6732.6627
-6732.6627
-6732.6627
-6732.6627
-6732.6627
-6732.6627
-6732.6627
-6732.6756
-6732.6756
-6732.6756
-6732.6756
-6732.6756
-6732.6756
-6732.6756
-6732.6756
-6732.6886
-6732.6886
-6732.6886
-6732.6886
-6732.6886
-6732.6886
-6732.6886
-6732.6886
-6732.7015
-6732.7015
-6732.7015
-6732.7015
-6732.7015
-6732.7015
-6732.7015
-6732.7015
-6732.7145
-6732.7145
-6732.7145
-6732.7145
-6732.7145
-6732.7145
-6732.7145
-6732.7145
-6732.7274
-6732.7274
-6732.7274
-6732.7274
-6732.7274
-6732.7274
-6732.7274
-6732.7274
-6732.7403
-6732.7403
-6732.7403
-6732.7403
-6732.7403
-6732.7403
-6732.7403
-6732.7403
-6732.7533
-6732.7533
-6732.7533
-6732.7533
-6732.7533
-6732.7533
-6732.7533
-6732.7533
-6732.7662
-6732.7662
-6732.7662
-6732.7662
-6732.7662
-6732.7662
-6732.7662
-6732.7662
-6732.7792
-6732.7792
-6732.7792
-6732.7792
-6732.7792
-6732.7792
-6732.7792
-6732.7792
-6732.7921
-6732.7921
-6732.7921
-6732.7921
-6732.7921
-6732.7921
-6732.7921
-6732.7921
-6732.805
-6732.805
-6732.805
-6732.805
-6732.805
-6732.805
-6732.805
-6732.805
-6732.818
-6732.818
-6732.818
-6732.818
-6732.818
-6732.818
-6732.818
-6732.818
-6732.8309
-6732.8309
-6732.8309
-6732.8309
-6732.8309
-6732.8309
-6732.8309
-6732.8309
-6732.8438
-6732.8439
-6732.8438
-6732.8438
-6732.8438
-6732.8438
-6732.8438
-6732.8438
-6732.8568
-6732.8568
-6732.8568
-6732.8568
-6732.8568
-6732.8568
-6732.8568
-6732.8568
-6732.8697
-6732.8697
-6732.8697
-6732.8697
-6732.8697
-6732.8697
-6732.8697
-6732.8697
-6732.8827
-6732.8827
-6732.8827
-6732.8827
-6732.8827
-6732.8827
-6732.8827
-6732.8827
-6732.8956
-6732.8956
-6732.8956
-6732.8956
-6732.8956
-6732.8956
-6732.8956
-6732.8956
-6732.9085
-6732.9085
-6732.9085
-6732.9085
-6732.9085
-6732.9085
-6732.9085
-6732.9085
-6732.9215
-6732.9215
-6732.9215
-6732.9215
-6732.9215
-6732.9215
-6732.9215
-6732.9215
-6732.9344
-6732.9344
-6732.9344
-6732.9344
-6732.9344
-6732.9344
-6732.9344
-6732.9344
-6732.9473
-6732.9473
-6732.9473
-6732.9473
-6732.9473
-6732.9473
-6732.9473
-6732.9473
-6732.9603
-6732.9603
-6732.9603
-6732.9603
-6732.9603
-6732.9603
-6732.9603
-6732.9603
-6732.9732
-6732.9732
-6732.9732
-6732.9732
-6732.9732
-6732.9732
-6732.9732
-6732.9732
-6732.9862
-6732.9861
-6732.9862
-6732.9861
-6732.9861
-6732.9862
-6732.9861
-6732.9862
-6732.9991
-6732.9991
-6732.9991
-6732.9991
-6732.9991
-6732.9991
-6732.9991
-6732.9991
-6733.012
-6733.012
-6733.012
-6733.012
-6733.012
-6733.012
-6733.012
-6733.012
-6733.025
-6733.025
-6733.025
-6733.025
-6733.025
-6733.025
-6733.025
-6733.025
-6733.0379
-6733.0379
-6733.0379
-6733.0379
-6733.0379
-6733.0379
-6733.0379
-6733.0379
-6733.0508
-6733.0508
-6733.0508
-6733.0508
-6733.0508
-6733.0508
-6733.0508
-6733.0508
-6733.0638
-6733.0638
-6733.0638
-6733.0638
-6733.0638
-6733.0638
-6733.0638
-6733.0638
-6733.0767
-6733.0767
-6733.0767
-6733.0767
-6733.0767
-6733.0767
-6733.0767
-6733.0767
-6733.0896
-6733.0896
-6733.0896
-6733.0896
-6733.0896
-6733.0896
-6733.0896
-6733.0896
-6733.1026
-6733.1026
-6733.1025
-6733.1025
-6733.1025
-6733.1025
-6733.1026
-6733.1026
-6733.1155
-6733.1155
-6733.1155
-6733.1155
-6733.1155
-6733.1155
-6733.1155
-6733.1155
-6733.1284
-6733.1284
-6733.1284
-6733.1284
-6733.1284
-6733.1284
-6733.1284
-6733.1284
-6733.1414
-6733.1413
-6733.1413
-6733.1413
-6733.1413
-6733.1413
-6733.1413
-6733.1413
-6733.1543
-6733.1543
-6733.1543
-6733.1543
-6733.1543
-6733.1543
-6733.1543
-6733.1543
-6733.1672
-6733.1672
-6733.1672
-6733.1672
-6733.1672
-6733.1672
-6733.1672
-6733.1672
-6733.1801
-6733.1801
-6733.1801
-6733.1801
-6733.1801
-6733.1801
-6733.1801
-6733.1801
-6733.1931
-6733.1931
-6733.1931
-6733.1931
-6733.1931
-6733.1931
-6733.1931
-6733.1931
-6733.206
-6733.206
-6733.206
-6733.206
-6733.206
-6733.206
-6733.206
-6733.206
-6733.2189
-6733.2189
-6733.2189
-6733.2189
-6733.2189
-6733.2189
-6733.2189
-6733.2189
-6733.2318
-6733.2318
-6733.2318
-6733.2318
-6733.2318
-6733.2318
-6733.2318
-6733.2318
-6733.2448
-6733.2448
-6733.2448
-6733.2448
-6733.2448
-6733.2448
-6733.2448
-6733.2448
-6733.2577
-6733.2577
-6733.2577
-6733.2577
-6733.2577
-6733.2577
-6733.2577
-6733.2577
-6733.2706
-6733.2706
-6733.2706
-6733.2706
-6733.2706
-6733.2706
-6733.2706
-6733.2706
-6733.2835
-6733.2835
-6733.2835
-6733.2835
-6733.2835
-6733.2835
-6733.2835
-6733.2835
-6733.2965
-6733.2965
-6733.2965
-6733.2965
-6733.2965
-6733.2965
-6733.2965
-6733.2965
-6733.3094
-6733.3094
-6733.3094
-6733.3094
-6733.3094
-6733.3094
-6733.3094
-6733.3094
-6733.3223
-6733.3223
-6733.3223
-6733.3223
-6733.3223
-6733.3223
-6733.3223
-6733.3223
-6733.3352
-6733.3352
-6733.3352
-6733.3352
-6733.3352
-6733.3352
-6733.3352
-6733.3352
-6733.3482
-6733.3482
-6733.3482
-6733.3482
-6733.3482
-6733.3482
-6733.3482
-6733.3482
-6733.3611
-6733.3611
-6733.3611
-6733.3611
-6733.3611
-6733.3611
-6733.3611
-6733.3611
-6733.374
-6733.374
-6733.374
-6733.374
-6733.374
-6733.374
-6733.374
-6733.374
-6733.3869
-6733.3869
-6733.3869
-6733.3869
-6733.3869
-6733.3869
-6733.3869
-6733.3869
-6733.3998
-6733.3998
-6733.3998
-6733.3998
-6733.3998
-6733.3998
-6733.3998
-6733.3998
-6733.4128
-6733.4128
-6733.4127
-6733.4127
-6733.4127
-6733.4127
-6733.4128
-6733.4128
-6733.4257
-6733.4257
-6733.4257
-6733.4257
-6733.4257
-6733.4257
-6733.4257
-6733.4257
-6733.4386
-6733.4386
-6733.4386
-6733.4386
-6733.4386
-6733.4386
-6733.4386
-6733.4386
-6733.4515
-6733.4515
-6733.4515
-6733.4515
-6733.4515
-6733.4515
-6733.4515
-6733.4515
-6733.4644
-6733.4644
-6733.4644
-6733.4644
-6733.4644
-6733.4644
-6733.4644
-6733.4644
-6733.4773
-6733.4773
-6733.4773
-6733.4773
-6733.4773
-6733.4773
-6733.4773
-6733.4773
-6733.4903
-6733.4903
-6733.4902
-6733.4902
-6733.4902
-6733.4902
-6733.4903
-6733.4903
-6733.5032
-6733.5032
-6733.5032
-6733.5032
-6733.5032
-6733.5032
-6733.5032
-6733.5032
-6733.5161
-6733.5161
-6733.5161
-6733.5161
-6733.5161
-6733.5161
-6733.5161
-6733.5161
-6733.529
-6733.529
-6733.529
-6733.529
-6733.529
-6733.529
-6733.529
-6733.529
-6733.5419
-6733.5419
-6733.5419
-6733.5419
-6733.5419
-6733.5419
-6733.5419
-6733.5419
-6733.5548
-6733.5548
-6733.5548
-6733.5548
-6733.5548
-6733.5548
-6733.5548
-6733.5548
-6733.5677
-6733.5677
-6733.5677
-6733.5677
-6733.5677
-6733.5677
-6733.5677
-6733.5677
-6733.5806
-6733.5806
-6733.5806
-6733.5806
-6733.5806
-6733.5806
-6733.5806
-6733.5806
-6733.5935
-6733.5935
-6733.5935
-6733.5935
-6733.5935
-6733.5935
-6733.5935
-6733.5935
-6733.6065
-6733.6064
-6733.6064
-6733.6064
-6733.6064
-6733.6064
-6733.6064
-6733.6065
-6733.6194
-6733.6194
-6733.6193
-6733.6193
-6733.6193
-6733.6193
-6733.6194
-6733.6194
-6733.6323
-6733.6323
-6733.6323
-6733.6322
-6733.6322
-6733.6323
-6733.6323
-6733.6323
-6733.6452
-6733.6452
-6733.6452
-6733.6452
-6733.6452
-6733.6452
-6733.6452
-6733.6452
-6733.6581
-6733.6581
-6733.6581
-6733.6581
-6733.6581
-6733.6581
-6733.6581
-6733.6581
-6733.671
-6733.671
-6733.671
-6733.671
-6733.671
-6733.671
-6733.671
-6733.671
-6733.6839
-6733.6839
-6733.6839
-6733.6839
-6733.6839
-6733.6839
-6733.6839
-6733.6839
-6733.6968
-6733.6968
-6733.6968
-6733.6968
-6733.6968
-6733.6968
-6733.6968
-6733.6968
-6733.7097
-6733.7097
-6733.7097
-6733.7096
-6733.7097
-6733.7097
-6733.7097
-6733.7097
-6733.7226
-6733.7226
-6733.7225
-6733.7225
-6733.7225
-6733.7226
-6733.7226
-6733.7226
-6733.7355
-6733.7355
-6733.7354
-6733.7354
-6733.7354
-6733.7354
-6733.7355
-6733.7355
-6733.7484
-6733.7484
-6733.7483
-6733.7483
-6733.7483
-6733.7483
-6733.7484
-6733.7484
-6733.7613
-6733.7612
-6733.7612
-6733.7612
-6733.7612
-6733.7612
-6733.7612
-6733.7613
-6733.7741
-6733.7741
-6733.7741
-6733.7741
-6733.7741
-6733.7741
-6733.7741
-6733.7742
-6733.787
-6733.787
-6733.787
-6733.787
-6733.787
-6733.787
-6733.787
-6733.787
-6733.7999
-6733.7999
-6733.7999
-6733.7999
-6733.7999
-6733.7999
-6733.7999
-6733.7999
-6733.8128
-6733.8128
-6733.8128
-6733.8128
-6733.8128
-6733.8128
-6733.8128
-6733.8128
-6733.8257
-6733.8257
-6733.8256
-6733.8256
-6733.8256
-6733.8257
-6733.8257
-6733.8257
-6733.8386
-6733.8386
-6733.8385
-6733.8385
-6733.8385
-6733.8385
-6733.8386
-6733.8386
-6733.8515
-6733.8514
-6733.8514
-6733.8514
-6733.8514
-6733.8514
-6733.8515
-6733.8515
-6733.8644
-6733.8643
-6733.8643
-6733.8642
-6733.8642
-6733.8643
-6733.8643
-6733.8644
-6733.8773
-6733.8772
-6733.8771
-6733.8771
-6733.8771
-6733.8771
-6733.8772
-6733.8773
-6733.8902
-6733.8901
-6733.89
-6733.8899
-6733.8899
-6733.89
-6733.8901
-6733.8902
-6733.9032
-6733.903
-6733.9029
-6733.9028
-6733.9028
-6733.9029
-6733.903
-6733.9032
-6733.9161
-6733.9159
-6733.9157
-6733.9156
-6733.9156
-6733.9157
-6733.9159
-6733.9162
-6733.9291
-6733.9288
-6733.9285
-6733.9284
-6733.9284
-6733.9285
-6733.9288
-6733.9292
-6733.9422
-6733.9417
-6733.9413
-6733.9411
-6733.9411
-6733.9413
-6733.9417
-6733.9422
-6733.9553
-6733.9546
-6733.9541
-6733.9538
-6733.9538
-6733.9541
-6733.9546
-6733.9553
-6733.9684
-6733.9675
-6733.9668
-6733.9664
-6733.9664
-6733.9668
-6733.9675
-6733.9684
-6733.9816
-6733.9804
-6733.9794
-6733.9789
-6733.9789
-6733.9794
-6733.9803
-6733.9816
-6733.9948
-6733.9932
-6733.9919
-6733.9914
-6733.9913
-6733.9919
-6733.9931
-6733.9947
-6734.0079
-6734.0059
-6734.0043
-6734.0036
-6734.0036
-6734.0042
-6734.0058
-6734.0078
-6734.021
-6734.0184
-6734.0165
-6734.0157
-6734.0157
-6734.0164
-6734.0183
-6734.0209
-6734.0338
-6734.0307
-6734.0285
-6734.0276
-6734.0276
-6734.0284
-6734.0306
-6734.0337
-6734.0464
-6734.0427
-6734.0402
-6734.0393
-6734.0393
-6734.0401
-6734.0426
-6734.0462
-6734.0585
-6734.0543
-6734.0515
-6734.0507
-6734.0507
-6734.0514
-6734.0541
-6734.0583
-6734.0699
-6734.0653
-6734.0625
-6734.0618
-6734.0618
-6734.0624
-6734.0652
-6734.0697
-6734.0805
-6734.0756
-6734.0731
-6734.0729
-6734.0728
-6734.073
-6734.0754
-6734.0802
-6734.09
-6734.0851
-6734.0831
-6734.0836
-6734.0836
-6734.083
-6734.0849
-6734.0898
-6734.0988
-6734.0941
-6734.0925
-6734.0934
-6734.0933
-6734.0924
-6734.0939
-6734.0985
-6734.1061
-6734.1038
-6734.1017
-6734.1008
-6734.1008
-6734.1016
-6734.1037
-6734.106
)
;

boundaryField
{
    left
    {
        type            zeroGradient;
    }
    right
    {
        type            WKBC;
        index           0;
        value           uniform -6734.1071;
    }
    walls
    {
        type            zeroGradient;
    }
    frontAndBack
    {
        type            empty;
    }
}


// ************************************************************************* //
