/*--------------------------------*- C++ -*----------------------------------*\
| =========                 |                                                 |
| \\      /  F ield         | OpenFOAM: The Open Source CFD Toolbox           |
|  \\    /   O peration     | Version:  5.x                                   |
|   \\  /    A nd           | Web:      www.OpenFOAM.org                      |
|    \\/     M anipulation  |                                                 |
\*---------------------------------------------------------------------------*/
FoamFile
{
    version     2.0;
    format      ascii;
    class       surfaceScalarField;
    location    "8";
    object      phi_0;
}
// * * * * * * * * * * * * * * * * * * * * * * * * * * * * * * * * * * * * * //

dimensions      [0 3 -1 0 0 0 0];

internalField   nonuniform List<scalar> 
3592
(
-1.8379207e-06
-1.7475641e-05
-1.1785158e-06
-1.9972965e-05
-5.8260838e-07
-1.9909466e-05
3.8202983e-13
-1.9896169e-05
5.8260913e-07
-1.9896168e-05
1.1785157e-06
-1.9909466e-05
1.8379203e-06
-1.9972964e-05
-1.7475639e-05
-2.4550185e-06
-1.502062e-05
-2.2248534e-06
-2.0203126e-05
-1.1931038e-06
-2.0941209e-05
7.3180473e-13
-2.1089267e-05
1.1931051e-06
-2.1089266e-05
2.2248534e-06
-2.0941209e-05
2.4550184e-06
-2.0203125e-05
-1.5020618e-05
-2.1447211e-06
-1.2875895e-05
-2.3662535e-06
-1.9981589e-05
-1.3756825e-06
-2.1931774e-05
9.6685303e-13
-2.2464945e-05
1.3756841e-06
-2.2464944e-05
2.3662538e-06
-2.1931773e-05
2.1447213e-06
-1.9981588e-05
-1.2875894e-05
-1.6988405e-06
-1.117705e-05
-2.1029434e-06
-1.957748e-05
-1.3040866e-06
-2.2730624e-05
1.0808246e-12
-2.3769027e-05
1.3040883e-06
-2.3769027e-05
2.1029439e-06
-2.2730624e-05
1.6988409e-06
-1.957748e-05
-1.117705e-05
-1.2794013e-06
-9.897645e-06
-1.7146224e-06
-1.9142254e-05
-1.1175872e-06
-2.3327653e-05
1.0377495e-12
-2.4886611e-05
1.1175889e-06
-2.4886611e-05
1.7146231e-06
-2.3327654e-05
1.2794018e-06
-1.9142253e-05
-9.8976449e-06
-9.2886725e-07
-8.9687736e-06
-1.3247298e-06
-1.8746386e-05
-8.9889757e-07
-2.375348e-05
8.8938595e-13
-2.5785505e-05
8.9889903e-07
-2.5785505e-05
1.3247307e-06
-2.375348e-05
9.2886785e-07
-1.8746385e-05
-8.9687734e-06
-6.5540565e-07
-8.3133643e-06
-9.8474411e-07
-1.8417042e-05
-6.9112659e-07
-2.4047093e-05
6.7984387e-13
-2.6476628e-05
6.9112776e-07
-2.6476628e-05
9.8474512e-07
-2.4047092e-05
6.5540633e-07
-1.8417041e-05
-8.3133639e-06
-4.521888e-07
-7.8611714e-06
-7.1054135e-07
-1.8158684e-05
-5.1336468e-07
-2.4244264e-05
4.8576505e-13
-2.6989989e-05
5.1336555e-07
-2.6989988e-05
7.1054239e-07
-2.4244263e-05
4.5218952e-07
-1.8158682e-05
-7.861171e-06
-3.0612701e-07
-7.5550413e-06
-5.0045017e-07
-1.7964356e-05
-3.708397e-07
-2.4373871e-05
2.7078176e-13
-2.7360825e-05
3.7084028e-07
-2.7360825e-05
5.0045117e-07
-2.437387e-05
3.0612775e-07
-1.7964354e-05
-7.5550407e-06
-2.0379163e-07
-7.3512462e-06
-3.4521113e-07
-1.7822931e-05
-2.6166369e-07
-2.4457414e-05
1.0751206e-13
-2.7622485e-05
2.6166399e-07
-2.7622484e-05
3.4521206e-07
-2.4457412e-05
2.0379234e-07
-1.7822929e-05
-7.3512456e-06
-1.3347505e-07
-7.2177687e-06
-2.3371671e-07
-1.7722685e-05
-1.8083311e-07
-2.4510295e-05
-5.3707259e-14
-2.7803315e-05
1.8083318e-07
-2.7803315e-05
2.337175e-07
-2.4510293e-05
1.3347572e-07
-1.7722684e-05
-7.217768e-06
-8.6044614e-08
-7.1317213e-06
-1.5544832e-07
-1.7653277e-05
-1.2262208e-07
-2.4543117e-05
-1.6783189e-13
-2.7925934e-05
1.2262194e-07
-2.7925933e-05
1.5544896e-07
-2.4543115e-05
8.6045209e-08
-1.7653276e-05
-7.1317207e-06
-5.4537252e-08
-7.0771825e-06
-1.0161678e-07
-1.7606195e-05
-8.164954e-08
-2.4563083e-05
-2.6070623e-13
-2.8007581e-05
8.1649238e-08
-2.800758e-05
1.0161725e-07
-2.4563081e-05
5.4537761e-08
-1.7606193e-05
-7.0771818e-06
-3.395605e-08
-7.0432243e-06
-6.5248669e-08
-1.7574899e-05
-5.3399477e-08
-2.4574929e-05
-3.3341792e-13
-2.8060977e-05
5.339905e-08
-2.8060976e-05
6.5248986e-08
-2.4574927e-05
3.3956468e-08
-1.7574897e-05
-7.0432238e-06
-2.0706605e-08
-7.0225168e-06
-4.1109989e-08
-1.7554494e-05
-3.4277609e-08
-2.458176e-05
-3.7399509e-13
-2.8095253e-05
3.4277072e-08
-2.8095252e-05
4.1110149e-08
-2.4581758e-05
2.0706927e-08
-1.7554492e-05
-7.0225162e-06
-1.2327585e-08
-7.0101876e-06
-2.5354154e-08
-1.7541464e-05
-2.1567385e-08
-2.4585544e-05
-4.1748402e-13
-2.8116817e-05
2.1566786e-08
-2.8116816e-05
2.5354178e-08
-2.4585542e-05
1.2327824e-08
-1.7541463e-05
-7.0101872e-06
-7.1172155e-09
-7.0030698e-06
-1.5254023e-08
-1.7533326e-05
-1.3266399e-08
-2.458753e-05
-4.1854726e-13
-2.8130081e-05
1.3265732e-08
-2.8130081e-05
1.5253931e-08
-2.4587529e-05
7.1173703e-09
-1.7533325e-05
-7.0030694e-06
-3.9474383e-09
-6.9991211e-06
-8.8992631e-09
-1.7528372e-05
-7.945973e-09
-2.4588481e-05
-4.3747727e-13
-2.8138025e-05
7.945299e-09
-2.8138024e-05
8.8990813e-09
-2.4588481e-05
3.9475352e-09
-1.7528371e-05
-6.999121e-06
-2.0642404e-09
-6.9970565e-06
-4.987063e-09
-1.7525448e-05
-4.6032191e-09
-2.4588864e-05
-4.2210798e-13
-2.8142626e-05
4.6025186e-09
-2.8142626e-05
4.9868208e-09
-2.4588864e-05
2.064279e-09
-1.7525448e-05
-6.9970564e-06
-9.809571e-10
-6.9960744e-06
-2.6381211e-09
-1.7523789e-05
-2.5508782e-09
-2.4588949e-05
-4.1692093e-13
-2.8145175e-05
2.5502082e-09
-2.8145175e-05
2.6378423e-09
-2.458895e-05
9.8096776e-10
-1.7523789e-05
-6.9960746e-06
-3.8303243e-10
-6.995691e-06
-1.271937e-09
-1.7522899e-05
-1.3244177e-09
-2.4588896e-05
-3.8016331e-13
-2.8146498e-05
1.3237714e-09
-2.8146498e-05
1.2716495e-09
-2.4588897e-05
3.8301342e-10
-1.75229e-05
-6.9956914e-06
-7.3183632e-11
-6.9956168e-06
-5.0965286e-10
-1.7522461e-05
-6.1643303e-10
-2.4588787e-05
-3.4805648e-13
-2.8147112e-05
6.1585981e-10
-2.8147112e-05
5.0938464e-10
-2.4588788e-05
7.3164976e-11
-1.7522462e-05
-6.9956174e-06
7.1804979e-11
-6.9956883e-06
-1.0962259e-10
-1.7522278e-05
-2.2605988e-10
-2.458867e-05
-3.0162854e-13
-2.8147337e-05
2.2555757e-10
-2.8147337e-05
1.0938898e-10
-2.4588672e-05
-7.1828334e-11
-1.752228e-05
-6.9956891e-06
1.2578134e-10
-6.995813e-06
8.066974e-11
-1.7522231e-05
-2.5368011e-11
-2.4588562e-05
-2.3816411e-13
-2.814736e-05
2.4969695e-11
-2.8147361e-05
-8.0842891e-11
-2.4588564e-05
-1.2578371e-10
-1.7522233e-05
-6.995814e-06
1.3357824e-10
-6.9959463e-06
1.5395396e-10
-1.7522251e-05
6.6496581e-11
-2.4588474e-05
-1.743012e-13
-2.8147292e-05
-6.6774555e-11
-2.8147293e-05
-1.5406129e-10
-2.4588476e-05
-1.3356748e-10
-1.7522253e-05
-6.9959474e-06
1.1943255e-10
-6.9960646e-06
1.6682113e-10
-1.7522296e-05
9.8286076e-11
-2.4588403e-05
-9.4946813e-14
-2.8147192e-05
-9.8438138e-11
-2.8147193e-05
-1.6683845e-10
-2.4588406e-05
-1.1938835e-10
-1.7522299e-05
-6.9960659e-06
9.8243347e-11
-6.9961626e-06
1.5076433e-10
-1.7522348e-05
9.9849461e-11
-2.4588352e-05
-2.4290134e-14
-2.8147091e-05
-9.9856889e-11
-2.8147093e-05
-1.5070335e-10
-2.4588355e-05
-9.8177137e-11
-1.7522351e-05
-6.9961639e-06
7.5771912e-11
-6.9962373e-06
1.2456642e-10
-1.7522395e-05
8.7418894e-11
-2.4588313e-05
6.2550744e-14
-2.8147002e-05
-8.7295837e-11
-2.8147003e-05
-1.2440592e-10
-2.4588316e-05
-7.5668974e-11
-1.7522398e-05
-6.9962387e-06
5.6540496e-11
-6.9962935e-06
9.6520252e-11
-1.7522434e-05
7.0779319e-11
-2.4588286e-05
1.3139014e-13
-2.8146931e-05
-7.0510699e-11
-2.8146932e-05
-9.6284443e-11
-2.4588289e-05
-5.6414598e-11
-1.7522437e-05
-6.9962949e-06
4.0201078e-11
-6.9963327e-06
7.188384e-11
-1.7522464e-05
5.3939943e-11
-2.4588267e-05
2.127903e-13
-2.8146875e-05
-5.3553603e-11
-2.8146877e-05
-7.1556072e-11
-2.458827e-05
-4.0042158e-11
-1.7522467e-05
-6.9963342e-06
2.8225752e-11
-6.9963606e-06
5.1172393e-11
-1.7522487e-05
3.9578216e-11
-2.4588254e-05
2.7019516e-13
-2.8146836e-05
-3.9067157e-11
-2.8146837e-05
-5.0784058e-11
-2.4588257e-05
-2.804853e-11
-1.752249e-05
-6.996362e-06
1.8680443e-11
-6.9963783e-06
3.5519084e-11
-1.7522502e-05
2.768803e-11
-2.4588245e-05
3.3500862e-13
-2.8146806e-05
-2.7086782e-11
-2.8146808e-05
-3.5058696e-11
-2.4588248e-05
-1.8478256e-11
-1.7522505e-05
-6.9963797e-06
1.2445271e-11
-6.9963905e-06
2.3384491e-11
-1.7522512e-05
1.8835148e-11
-2.458824e-05
3.7409295e-13
-2.8146787e-05
-1.8145489e-11
-2.8146789e-05
-2.2885654e-11
-2.4588243e-05
-1.2232613e-11
-1.7522515e-05
-6.9963917e-06
7.4463549e-12
-6.9963969e-06
1.504031e-11
-1.7522518e-05
1.2010574e-11
-2.4588235e-05
4.1596094e-13
-2.8146774e-05
-1.126666e-11
-2.8146775e-05
-1.4495774e-11
-2.4588238e-05
-7.2185961e-12
-1.7522521e-05
-6.9963981e-06
4.641434e-12
-6.9964013e-06
8.7394041e-12
-1.7522521e-05
7.3790956e-12
-2.4588233e-05
4.3402936e-13
-2.8146767e-05
-6.5892876e-12
-2.8146768e-05
-8.180771e-12
-2.4588236e-05
-4.4118501e-12
-1.7522524e-05
-6.9964024e-06
2.160482e-12
-6.9964025e-06
4.8254507e-12
-1.7522522e-05
3.8765815e-12
-2.4588231e-05
4.5176134e-13
-2.8146762e-05
-3.0692588e-12
-2.8146763e-05
-4.2479057e-12
-2.4588233e-05
-1.9252907e-12
-1.7522525e-05
-6.9964035e-06
1.1303177e-12
-6.9964034e-06
1.7867769e-12
-1.7522523e-05
1.738871e-12
-2.458823e-05
4.5006785e-13
-2.814676e-05
-9.2592855e-13
-2.8146761e-05
-1.2172132e-12
-2.4588232e-05
-9.009229e-13
-1.7522525e-05
-6.9964043e-06
-1.0808026e-13
-6.9964023e-06
1.9106451e-13
-1.7522521e-05
5.6949955e-14
-2.4588228e-05
4.4669474e-13
-2.8146759e-05
7.4214577e-13
-2.814676e-05
3.7470754e-13
-2.458823e-05
3.3542744e-13
-1.7522523e-05
-6.9964032e-06
-3.1104362e-13
-6.9964018e-06
-1.2264361e-12
-1.752252e-05
-7.9791399e-13
-2.4588228e-05
4.2942705e-13
-2.814676e-05
1.5705167e-12
-2.814676e-05
1.7674349e-12
-2.458823e-05
5.2709538e-13
-1.7522521e-05
-6.9964025e-06
-9.8838067e-13
-6.9963999e-06
-1.7282061e-12
-1.7522517e-05
-1.5885711e-12
-2.4588227e-05
4.1055206e-13
-2.814676e-05
2.3251031e-12
-2.8146761e-05
2.2493147e-12
-2.4588228e-05
1.1972543e-12
-1.7522519e-05
-6.9964005e-06
-8.4132367e-13
-6.9963989e-06
-2.4099938e-12
-1.7522515e-05
-1.8463237e-12
-2.4588227e-05
3.83362e-13
-2.8146762e-05
2.5352196e-12
-2.8146763e-05
2.8960962e-12
-2.4588228e-05
1.0358947e-12
-1.7522517e-05
-6.9963994e-06
-1.2841521e-12
-6.9963967e-06
-2.4402077e-12
-1.7522513e-05
-2.2373651e-12
-2.4588226e-05
3.5537927e-13
-2.8146763e-05
2.8781927e-12
-2.8146763e-05
2.8975067e-12
-2.4588227e-05
1.4689542e-12
-1.7522514e-05
-6.9963971e-06
-1.005133e-12
-6.9963955e-06
-2.8140224e-12
-1.752251e-05
-2.2402863e-12
-2.4588226e-05
3.2392693e-13
-2.8146765e-05
2.8232549e-12
-2.8146766e-05
3.2323721e-12
-2.4588227e-05
1.1749108e-12
-1.7522511e-05
-6.9963958e-06
-1.3560969e-12
-6.9963932e-06
-2.6593939e-12
-1.7522508e-05
-2.4650384e-12
-2.4588225e-05
2.9263838e-13
-2.8146766e-05
2.997117e-12
-2.8146767e-05
3.0463344e-12
-2.4588226e-05
1.5156106e-12
-1.7522508e-05
-6.9963936e-06
-1.0361429e-12
-6.9963921e-06
-2.9135687e-12
-1.7522505e-05
-2.3678652e-12
-2.4588225e-05
2.6160472e-13
-2.8146769e-05
2.8408449e-12
-2.8146769e-05
3.2626295e-12
-2.4588226e-05
1.1816491e-12
-1.7522506e-05
-6.9963923e-06
-1.3518809e-12
-6.9963898e-06
-2.694709e-12
-1.7522502e-05
-2.5270722e-12
-2.4588224e-05
2.3141615e-13
-2.814677e-05
2.9532148e-12
-2.814677e-05
3.0143906e-12
-2.4588224e-05
1.4880646e-12
-1.7522503e-05
-6.9963901e-06
-1.0253334e-12
-6.9963887e-06
-2.9047504e-12
-1.75225e-05
-2.393464e-12
-2.4588224e-05
2.040227e-13
-2.8146772e-05
2.7654485e-12
-2.8146773e-05
3.1909258e-12
-2.4588224e-05
1.1496023e-12
-1.7522501e-05
-6.9963888e-06
-1.3258184e-12
-6.9963864e-06
-2.6675951e-12
-1.7522497e-05
-2.5266094e-12
-2.4588222e-05
1.776907e-13
-2.8146774e-05
2.8599993e-12
-2.8146774e-05
2.9291929e-12
-2.4588223e-05
1.4424717e-12
-1.7522498e-05
-6.9963866e-06
-1.0039667e-12
-6.9963853e-06
-2.8605845e-12
-1.7522495e-05
-2.3802082e-12
-2.4588223e-05
1.5566471e-13
-2.8146776e-05
2.6677347e-12
-2.8146776e-05
3.0946861e-12
-2.4588223e-05
1.1112647e-12
-1.7522496e-05
-6.9963854e-06
-1.2950665e-12
-6.9963831e-06
-2.62054e-12
-1.7522492e-05
-2.5011719e-12
-2.4588221e-05
1.3444533e-13
-2.8146777e-05
2.7601077e-12
-2.8146777e-05
2.8359988e-12
-2.4588222e-05
1.396665e-12
-1.7522493e-05
-6.9963833e-06
-9.8081356e-13
-6.996382e-06
-2.8048061e-12
-1.752249e-05
-2.3498102e-12
-2.4588221e-05
1.1827581e-13
-2.8146779e-05
2.5722114e-12
-2.8146779e-05
2.9990828e-12
-2.4588222e-05
1.075619e-12
-1.7522491e-05
-6.9963822e-06
-1.2636936e-12
-6.9963799e-06
-2.5661504e-12
-1.7522487e-05
-2.4629611e-12
-2.458822e-05
1.0228988e-13
-2.814678e-05
2.666715e-12
-2.8146781e-05
2.7476523e-12
-2.4588221e-05
1.3545431e-12
-1.7522488e-05
-6.9963801e-06
-9.5735703e-13
-6.9963788e-06
-2.7437078e-12
-1.7522485e-05
-2.3090277e-12
-2.458822e-05
9.1610618e-14
-2.8146783e-05
2.4850189e-12
-2.8146783e-05
2.9097612e-12
-2.4588221e-05
1.0436908e-12
-1.7522486e-05
-6.996379e-06
-1.2319933e-12
-6.9963767e-06
-2.5073021e-12
-1.7522483e-05
-2.4157565e-12
-2.4588219e-05
8.0267051e-14
-2.8146784e-05
2.5818577e-12
-2.8146784e-05
2.6656612e-12
-2.4588219e-05
1.3157334e-12
-1.7522483e-05
-6.996377e-06
-9.3332926e-13
-6.9963757e-06
-2.6785105e-12
-1.752248e-05
-2.2601378e-12
-2.4588219e-05
7.4238081e-14
-2.8146786e-05
2.4058115e-12
-2.8146786e-05
2.8261174e-12
-2.458822e-05
1.0144132e-12
-1.7522481e-05
-6.9963759e-06
-1.1996203e-12
-6.9963737e-06
-2.4444837e-12
-1.7522478e-05
-2.3611587e-12
-2.4588218e-05
6.6605664e-14
-2.8146787e-05
2.5040011e-12
-2.8146787e-05
2.5883768e-12
-2.4588218e-05
1.2790231e-12
-1.7522478e-05
-6.9963739e-06
-9.0838884e-13
-6.9963727e-06
-2.6095211e-12
-1.7522476e-05
-2.2044866e-12
-2.4588218e-05
6.4220589e-14
-2.8146789e-05
2.3324871e-12
-2.8146789e-05
2.7461953e-12
-2.4588219e-05
9.8656066e-13
-1.7522476e-05
-6.9963729e-06
-1.1663991e-12
-6.9963707e-06
-2.3780071e-12
-1.7522473e-05
-2.3004696e-12
-2.4588217e-05
5.930023e-14
-2.814679e-05
2.4309296e-12
-2.814679e-05
2.5138235e-12
-2.4588217e-05
1.2433774e-12
-1.7522474e-05
-6.996371e-06
-8.8244637e-13
-6.9963697e-06
-2.5371866e-12
-1.7522471e-05
-2.1433851e-12
-2.4588217e-05
5.9591871e-14
-2.8146792e-05
2.2629007e-12
-2.8146792e-05
2.668242e-12
-2.4588218e-05
9.5923588e-13
-1.7522472e-05
-6.99637e-06
-1.1323894e-12
-6.9963678e-06
-2.3084183e-12
-1.7522469e-05
-2.2350298e-12
-2.4588216e-05
5.6480364e-14
-2.8146793e-05
2.3607239e-12
-2.8146793e-05
2.4404891e-12
-2.4588216e-05
1.2081222e-12
-1.752247e-05
-6.9963681e-06
-8.5560744e-13
-6.9963669e-06
-2.4621679e-12
-1.7522467e-05
-2.07816e-12
-2.4588216e-05
5.8629064e-14
-2.8146795e-05
2.1953797e-12
-2.8146795e-05
2.5910533e-12
-2.4588217e-05
9.3189278e-13
-1.7522468e-05
-6.9963672e-06
-1.0977851e-12
-6.9963649e-06
-2.2364158e-12
-1.7522464e-05
-2.1661396e-12
-2.4588214e-05
5.6595049e-14
-2.8146796e-05
2.2919978e-12
-2.8146796e-05
2.367418e-12
-2.4588215e-05
1.1728901e-12
-1.7522465e-05
-6.9963653e-06
-8.2806847e-13
-6.9963641e-06
-2.385203e-12
-1.7522463e-05
-2.0100382e-12
-2.4588215e-05
5.9966095e-14
-2.8146798e-05
2.1287917e-12
-2.8146798e-05
2.5139344e-12
-2.4588216e-05
9.0425127e-13
-1.7522463e-05
-6.9963644e-06
-1.0628241e-12
-6.9963622e-06
-2.1627146e-12
-1.752246e-05
-2.0949509e-12
-2.4588213e-05
5.8463567e-14
-2.8146798e-05
2.2238712e-12
-2.8146799e-05
2.294107e-12
-2.4588214e-05
1.1375272e-12
-1.7522461e-05
-6.9963627e-06
-8.0004334e-13
-6.9963614e-06
-2.3069966e-12
-1.7522459e-05
-1.9400676e-12
-2.4588214e-05
6.2598427e-14
-2.81468e-05
2.0624643e-12
-2.8146801e-05
2.4365735e-12
-2.4588215e-05
8.7620792e-13
-1.7522459e-05
-6.9963618e-06
-1.0277355e-12
-6.9963596e-06
-2.0879669e-12
-1.7522456e-05
-2.0224199e-12
-2.4588213e-05
6.1246141e-14
-2.8146801e-05
2.155865e-12
-2.8146802e-05
2.2203753e-12
-2.4588213e-05
1.1020143e-12
-1.7522457e-05
-6.9963601e-06
-7.7173125e-13
-6.9963589e-06
-2.2281686e-12
-1.7522455e-05
-1.8690992e-12
-2.4588213e-05
6.5831461e-14
-2.8146803e-05
1.9960701e-12
-2.8146803e-05
2.3589183e-12
-2.4588214e-05
8.4776886e-13
-1.7522456e-05
-6.9963592e-06
-9.9272201e-13
-6.9963571e-06
-2.0127345e-12
-1.7522452e-05
-1.9493122e-12
-2.4588212e-05
6.4376904e-14
-2.8146804e-05
2.0877872e-12
-2.8146804e-05
2.1462518e-12
-2.4588213e-05
1.0664124e-12
-1.7522453e-05
-6.9963576e-06
-7.4330528e-13
-6.9963564e-06
-2.1492452e-12
-1.7522451e-05
-1.7978084e-12
-2.4588212e-05
6.9206799e-14
-2.8146806e-05
1.9295185e-12
-2.8146806e-05
2.2810785e-12
-2.4588213e-05
8.1900384e-13
-1.7522452e-05
-6.9963568e-06
-9.579558e-13
-6.9963547e-06
-1.9374924e-12
-1.7522449e-05
-1.8762341e-12
-2.4588211e-05
6.7490534e-14
-2.8146806e-05
2.0196347e-12
-2.8146807e-05
2.0718923e-12
-2.4588212e-05
1.030824e-12
-1.752245e-05
-6.9963552e-06
-7.1491477e-13
-6.996354e-06
-2.0706706e-12
-1.7522447e-05
-1.726732e-12
-2.4588211e-05
7.2433811e-14
-2.8146808e-05
1.8628683e-12
-2.8146809e-05
2.2032568e-12
-2.4588212e-05
7.9001624e-13
-1.7522448e-05
-6.9963544e-06
-9.2358304e-13
-6.9963523e-06
-1.8626436e-12
-1.7522445e-05
-1.8036706e-12
-2.458821e-05
7.0358959e-14
-2.8146809e-05
1.9515177e-12
-2.8146809e-05
1.9975202e-12
-2.4588211e-05
9.9537127e-13
-1.7522446e-05
-6.9963528e-06
-6.8668806e-13
-6.9963517e-06
-1.992822e-12
-1.7522444e-05
-1.6563027e-12
-2.458821e-05
7.5332803e-14
-2.8146811e-05
1.796263e-12
-2.8146811e-05
2.125699e-12
-2.4588212e-05
7.6092427e-13
-1.7522445e-05
-6.9963521e-06
-8.8972771e-13
-6.9963501e-06
-1.7885329e-12
-1.7522442e-05
-1.7320157e-12
-2.4588209e-05
7.2842755e-14
-2.8146811e-05
1.883606e-12
-2.8146812e-05
1.9233875e-12
-2.458821e-05
9.6018029e-13
-1.7522443e-05
-6.9963506e-06
-6.5873755e-13
-6.9963495e-06
-1.9160221e-12
-1.7522441e-05
-1.5868752e-12
-2.458821e-05
7.7794068e-14
-2.8146813e-05
1.7298877e-12
-2.8146814e-05
2.0486639e-12
-2.4588211e-05
7.3184838e-13
-1.7522442e-05
-6.99635e-06
-8.5649619e-13
-6.996348e-06
-1.7154569e-12
-1.7522439e-05
-1.6615934e-12
-2.4588209e-05
7.4857945e-14
-2.8146814e-05
1.8160942e-12
-2.8146814e-05
1.8497494e-12
-2.458821e-05
9.2537258e-13
-1.752244e-05
-6.9963485e-06
-6.3116126e-13
-6.9963474e-06
-1.8405473e-12
-1.7522437e-05
-1.5187429e-12
-2.4588209e-05
7.9753303e-14
-2.8146815e-05
1.66394e-12
-2.8146816e-05
1.972403e-12
-2.458821e-05
7.0290481e-13
-1.7522438e-05
-6.9963479e-06
-8.2397801e-13
-6.9963459e-06
-1.6436703e-12
-1.7522435e-05
-1.5926718e-12
-2.4588208e-05
7.6357216e-14
-2.8146816e-05
1.74918e-12
-2.8146816e-05
1.776849e-12
-2.4588209e-05
8.9105932e-13
-1.7522437e-05
-6.9963464e-06
-6.0404365e-13
-6.9963454e-06
-1.7666321e-12
-1.7522434e-05
-1.4521478e-12
-2.4588208e-05
8.1175401e-14
-2.8146818e-05
1.5986152e-12
-2.8146818e-05
1.8971499e-12
-2.458821e-05
6.7420031e-13
-1.7522435e-05
-6.9963459e-06
-7.9224695e-13
-6.996344e-06
-1.5733882e-12
-1.7522432e-05
-1.5254693e-12
-2.4588207e-05
7.7317171e-14
-2.8146818e-05
1.6830522e-12
-2.8146819e-05
1.7049095e-12
-2.4588208e-05
8.5733932e-13
-1.7522434e-05
-6.9963445e-06
-5.7745599e-13
-6.9963435e-06
-1.6944706e-12
-1.7522431e-05
-1.3872857e-12
-2.4588208e-05
8.2046886e-14
-2.814682e-05
1.5340957e-12
-2.814682e-05
1.8231139e-12
-2.4588209e-05
6.4583162e-13
-1.7522433e-05
-6.9963439e-06
-7.6136236e-13
-6.9963421e-06
-1.504787e-12
-1.752243e-05
-1.4601587e-12
-2.4588207e-05
7.7733926e-14
-2.814682e-05
1.6178837e-12
-2.8146821e-05
1.6341293e-12
-2.4588208e-05
8.2429788e-13
-1.7522431e-05
-6.9963426e-06
-5.5145726e-13
-6.9963417e-06
-1.6242172e-12
-1.7522429e-05
-1.3243078e-12
-2.4588207e-05
8.2371532e-14
-2.8146822e-05
1.4705477e-12
-2.8146822e-05
1.7504775e-12
-2.4588208e-05
6.1788317e-13
-1.752243e-05
-6.9963421e-06
-7.3136884e-13
-6.9963403e-06
-1.4380052e-12
-1.7522427e-05
-1.3968686e-12
-2.4588206e-05
7.7619149e-14
-2.8146822e-05
1.5538304e-12
-2.8146823e-05
1.5646801e-12
-2.4588207e-05
7.9200629e-13
-1.7522428e-05
-6.9963408e-06
-5.2609335e-13
-6.99634e-06
-1.5559885e-12
-1.7522426e-05
-1.263323e-12
-2.4588207e-05
8.2167769e-14
-2.8146824e-05
1.408119e-12
-2.8146824e-05
1.6793952e-12
-2.4588208e-05
5.9042735e-13
-1.7522427e-05
-6.9963404e-06
-7.0229702e-13
-6.9963386e-06
-1.3731452e-12
-1.7522424e-05
-1.3356863e-12
-2.4588206e-05
7.6997946e-14
-2.8146824e-05
1.4910283e-12
-2.8146825e-05
1.4967069e-12
-2.4588207e-05
7.6052219e-13
-1.7522426e-05
-6.9963391e-06
-5.0139762e-13
-6.9963383e-06
-1.4898647e-12
-1.7522424e-05
-1.204401e-12
-2.4588206e-05
8.1466708e-14
-2.8146826e-05
1.3469385e-12
-2.8146826e-05
1.6099947e-12
-2.4588207e-05
5.6352491e-13
-1.7522425e-05
-6.9963387e-06
-6.7416463e-13
-6.996337e-06
-1.3102745e-12
-1.7522422e-05
-1.2766609e-12
-2.4588205e-05
7.5907284e-14
-2.8146826e-05
1.4295938e-12
-2.8146827e-05
1.4303289e-12
-2.4588206e-05
7.2989062e-13
-1.7522423e-05
-6.9963375e-06
-4.7739193e-13
-6.9963367e-06
-1.4258921e-12
-1.7522421e-05
-1.1475761e-12
-2.4588206e-05
8.0310171e-14
-2.8146828e-05
1.2871158e-12
-2.8146828e-05
1.5423773e-12
-2.4588207e-05
5.3722503e-13
-1.7522422e-05
-6.9963371e-06
-6.4697697e-13
-6.9963355e-06
-1.2494297e-12
-1.752242e-05
-1.219808e-12
-2.4588205e-05
7.4393422e-14
-2.8146828e-05
1.3696249e-12
-2.8146829e-05
1.3656402e-12
-2.4588206e-05
7.0014463e-13
-1.7522421e-05
-6.9963359e-06
-4.5408804e-13
-6.9963352e-06
-1.3640878e-12
-1.7522419e-05
-1.0928505e-12
-2.4588206e-05
7.8748213e-14
-2.814683e-05
1.228742e-12
-2.814683e-05
1.4766195e-12
-2.4588207e-05
5.1156648e-13
-1.752242e-05
-6.9963356e-06
-6.2073008e-13
-6.996334e-06
-1.1906199e-12
-1.7522418e-05
-1.1651128e-12
-2.4588205e-05
7.2509249e-14
-2.814683e-05
1.3112003e-12
-2.814683e-05
1.3027112e-12
-2.4588206e-05
6.7130565e-13
-1.7522419e-05
-6.9963345e-06
-4.3148845e-13
-6.9963338e-06
-1.3044424e-12
-1.7522417e-05
-1.0401995e-12
-2.4588205e-05
7.6836059e-14
-2.8146831e-05
1.1718892e-12
-2.8146832e-05
1.4127746e-12
-2.4588206e-05
4.8657739e-13
-1.7522418e-05
-6.9963341e-06
-5.9541065e-13
-6.9963326e-06
-1.1338302e-12
-1.7522415e-05
-1.1125362e-12
-2.4588204e-05
7.0311743e-14
-2.8146832e-05
1.2543804e-12
-2.8146832e-05
1.2415904e-12
-2.4588205e-05
6.4338531e-13
-1.7522416e-05
-6.996333e-06
-4.0958852e-13
-6.9963324e-06
-1.2469246e-12
-1.7522415e-05
-9.8957672e-13
-2.4588205e-05
7.4632168e-14
-2.8146833e-05
1.1166121e-12
-2.8146833e-05
1.350875e-12
-2.4588206e-05
4.6227738e-13
-1.7522416e-05
-6.9963328e-06
-5.7099831e-13
-6.9963313e-06
-1.0790268e-12
-1.7522414e-05
-1.0620197e-12
-2.4588204e-05
6.7859622e-14
-2.8146833e-05
1.1992085e-12
-2.8146834e-05
1.1823065e-12
-2.4588205e-05
6.1638666e-13
-1.7522414e-05
-6.9963317e-06
-3.8837638e-13
-6.9963311e-06
-1.191486e-12
-1.7522413e-05
-9.4091863e-13
-2.4588205e-05
7.2195182e-14
-2.8146835e-05
1.062949e-12
-2.8146835e-05
1.2909336e-12
-2.4588206e-05
4.3867761e-13
-1.7522414e-05
-6.9963315e-06
-5.4746727e-13
-6.99633e-06
-1.02616e-12
-1.7522412e-05
-1.01349e-12
-2.4588204e-05
6.5211035e-14
-2.8146835e-05
1.1457114e-12
-2.8146835e-05
1.1248703e-12
-2.4588205e-05
5.9030457e-13
-1.7522413e-05
-6.9963304e-06
-3.6783651e-13
-6.9963299e-06
-1.1380643e-12
-1.7522411e-05
-8.9414956e-13
-2.4588204e-05
6.9582529e-14
-2.8146836e-05
1.0109215e-12
-2.8146836e-05
1.232947e-12
-2.4588205e-05
4.15782e-13
-1.7522412e-05
-6.9963302e-06
-5.2478799e-13
-6.9963288e-06
-9.7516875e-13
-1.752241e-05
-9.6686348e-13
-2.4588203e-05
6.2421576e-14
-2.8146836e-05
1.093901e-12
-2.8146837e-05
1.0692768e-12
-2.4588204e-05
5.6512716e-13
-1.7522411e-05
-6.9963292e-06
-3.4794916e-13
-6.9963287e-06
-1.0865884e-12
-1.7522409e-05
-8.4918498e-13
-2.4588204e-05
6.6848157e-14
-2.8146838e-05
9.605377e-13
-2.8146838e-05
1.1768968e-12
-2.4588205e-05
3.9358822e-13
-1.752241e-05
-6.996329e-06
-5.0292749e-13
-6.9963277e-06
-9.2598451e-13
-1.7522408e-05
-9.2204988e-13
-2.4588203e-05
5.9542924e-14
-2.8146838e-05
1.0437754e-12
-2.8146838e-05
1.0155074e-12
-2.4588204e-05
5.4083735e-13
-1.7522409e-05
-6.9963281e-06
-3.2869203e-13
-6.9963276e-06
-1.0369796e-12
-1.7522408e-05
-8.0593649e-13
-2.4588204e-05
6.404185e-14
-2.8146839e-05
9.1179232e-13
-2.8146839e-05
1.1227525e-12
-2.4588205e-05
3.7208886e-13
-1.7522409e-05
-6.9963279e-06
-4.8185149e-13
-6.9963266e-06
-8.7853276e-13
-1.7522407e-05
-8.7895627e-13
-2.4588203e-05
5.6621763e-14
-2.8146839e-05
9.9532099e-13
-2.8146839e-05
9.6353255e-13
-2.4588204e-05
5.1741355e-13
-1.7522407e-05
-6.996327e-06
-3.1004157e-13
-6.9963266e-06
-9.8915613e-13
-1.7522406e-05
-7.643132e-13
-2.4588204e-05
6.1207596e-14
-2.814684e-05
8.6466939e-13
-2.8146841e-05
1.0704735e-12
-2.4588204e-05
3.5127218e-13
-1.7522407e-05
-6.9963268e-06
-4.6152466e-13
-6.9963256e-06
-8.3273645e-13
-1.7522405e-05
-8.3748884e-13
-2.4588203e-05
5.3699359e-14
-2.814684e-05
9.4851389e-13
-2.8146841e-05
9.1331319e-13
-2.4588203e-05
4.9483035e-13
-1.7522406e-05
-6.9963259e-06
-2.9197335e-13
-6.9963256e-06
-9.430345e-13
-1.7522405e-05
-7.2422532e-13
-2.4588203e-05
5.838433e-14
-2.8146842e-05
8.1914279e-13
-2.8146842e-05
1.020011e-12
-2.4588204e-05
3.3112314e-13
-1.7522406e-05
-6.9963258e-06
-4.4191202e-13
-6.9963246e-06
-7.8851836e-13
-1.7522404e-05
-7.9755568e-13
-2.4588203e-05
5.0811147e-14
-2.8146842e-05
9.0332127e-13
-2.8146842e-05
8.6480346e-13
-2.4588203e-05
4.7306005e-13
-1.7522404e-05
-6.9963249e-06
-2.7446286e-13
-6.9963246e-06
-8.9853199e-13
-1.7522403e-05
-6.855853e-13
-2.4588203e-05
5.5604557e-14
-2.8146843e-05
7.7517924e-13
-2.8146843e-05
9.7131073e-13
-2.4588204e-05
3.1162395e-13
-1.7522404e-05
-6.9963249e-06
-4.2297887e-13
-6.9963237e-06
-7.4580226e-13
-1.7522402e-05
-7.5906822e-13
-2.4588202e-05
4.7986353e-14
-2.8146843e-05
8.5970417e-13
-2.8146843e-05
8.1795184e-13
-2.4588203e-05
4.5207308e-13
-1.7522403e-05
-6.996324e-06
-2.5748617e-13
-6.9963237e-06
-8.5556794e-13
-1.7522402e-05
-6.4830965e-13
-2.4588203e-05
5.2895067e-14
-2.8146844e-05
7.3273901e-13
-2.8146844e-05
9.2431358e-13
-2.4588204e-05
2.9275533e-13
-1.7522403e-05
-6.996324e-06
-4.0469164e-13
-6.9963228e-06
-7.0451451e-13
-1.7522401e-05
-7.219423e-13
-2.4588202e-05
4.5248871e-14
-2.8146844e-05
8.1761775e-13
-2.8146844e-05
7.7270362e-13
-2.4588203e-05
4.318391e-13
-1.7522402e-05
-6.9963231e-06
-2.4101997e-13
-6.9963229e-06
-8.1406469e-13
-1.7522401e-05
-6.1231955e-13
-2.4588203e-05
5.0277538e-14
-2.8146845e-05
6.9177795e-13
-2.8146845e-05
8.7895839e-13
-2.4588204e-05
2.7449649e-13
-1.7522401e-05
-6.9963231e-06
-3.8701863e-13
-6.996322e-06
-6.6458456e-13
-1.75224e-05
-6.8609923e-13
-2.4588202e-05
4.2617141e-14
-2.8146845e-05
7.7701406e-13
-2.8146845e-05
7.290021e-13
-2.4588203e-05
4.1232714e-13
-1.7522401e-05
-6.9963223e-06
-2.2504271e-13
-6.9963221e-06
-7.7394871e-13
-1.75224e-05
-5.7754208e-13
-2.4588203e-05
4.7768141e-14
-2.8146846e-05
6.5224888e-13
-2.8146846e-05
8.3518277e-13
-2.4588203e-05
2.5682674e-13
-1.75224e-05
-6.9963223e-06
-3.6992951e-13
-6.9963212e-06
-6.2594637e-13
-1.7522399e-05
-6.5146641e-13
-2.4588202e-05
4.0105223e-14
-2.8146846e-05
7.3784241e-13
-2.8146846e-05
6.8678988e-13
-2.4588203e-05
3.935066e-13
-1.7522399e-05
-6.9963215e-06
-2.0953366e-13
-6.9963213e-06
-7.3515125e-13
-1.7522399e-05
-5.4391017e-13
-2.4588203e-05
4.5379049e-14
-2.8146847e-05
6.141032e-13
-2.8146847e-05
7.929245e-13
-2.4588203e-05
2.397249e-13
-1.7522399e-05
-6.9963215e-06
-3.5339577e-13
-6.9963205e-06
-5.8853862e-13
-1.7522398e-05
-6.1797704e-13
-2.4588202e-05
3.772268e-14
-2.8146847e-05
7.0005167e-13
-2.8146847e-05
6.4600988e-13
-2.4588202e-05
3.7534735e-13
-1.7522398e-05
-6.9963207e-06
-1.9447425e-13
-6.9963206e-06
-6.9760831e-13
-1.7522398e-05
-5.1136296e-13
-2.4588203e-05
4.3118145e-14
-2.8146848e-05
5.7729142e-13
-2.8146848e-05
7.5212223e-13
-2.4588203e-05
2.231705e-13
-1.7522398e-05
-6.9963208e-06
-3.373916e-13
-6.9963198e-06
-5.5230486e-13
-1.7522397e-05
-5.8557086e-13
-2.4588202e-05
3.5475012e-14
-2.8146848e-05
6.6359039e-13
-2.8146848e-05
6.0660664e-13
-2.4588202e-05
3.5782044e-13
-1.7522397e-05
-6.99632e-06
-1.7984735e-13
-6.9963199e-06
-6.6126176e-13
-1.7522397e-05
-4.7984572e-13
-2.4588202e-05
4.0989756e-14
-2.8146849e-05
5.417648e-13
-2.8146849e-05
7.1271752e-13
-2.4588203e-05
2.0714363e-13
-1.7522397e-05
-6.9963201e-06
-3.2189268e-13
-6.9963191e-06
-5.1719414e-13
-1.7522396e-05
-5.5419398e-13
-2.4588202e-05
3.3365446e-14
-2.8146849e-05
6.2840856e-13
-2.8146849e-05
5.6852759e-13
-2.4588202e-05
3.408985e-13
-1.7522396e-05
-6.9963194e-06
-1.656378e-13
-6.9963193e-06
-6.2605845e-13
-1.7522396e-05
-4.4931021e-13
-2.4588202e-05
3.8996231e-14
-2.814685e-05
5.0747602e-13
-2.814685e-05
6.7465451e-13
-2.4588203e-05
1.9162597e-13
-1.7522396e-05
-6.9963194e-06
-3.0687711e-13
-6.9963185e-06
-4.831607e-13
-1.7522395e-05
-5.2379866e-13
-2.4588201e-05
3.1394684e-14
-2.8146849e-05
5.9445771e-13
-2.814685e-05
5.317227e-13
-2.4588202e-05
3.2455546e-13
-1.7522395e-05
-6.9963187e-06
-1.5183222e-13
-6.9963187e-06
-5.9195153e-13
-1.7522395e-05
-4.1971372e-13
-2.4588202e-05
3.7137134e-14
-2.814685e-05
4.7438035e-13
-2.8146851e-05
6.3788085e-13
-2.4588203e-05
1.7660032e-13
-1.7522395e-05
-6.9963188e-06
-2.9232558e-13
-6.9963179e-06
-4.5016452e-13
-1.7522394e-05
-4.9434297e-13
-2.4588201e-05
2.9560883e-14
-2.814685e-05
5.6169303e-13
-2.814685e-05
4.9614598e-13
-2.4588202e-05
3.087674e-13
-1.7522394e-05
-6.9963182e-06
-1.3841956e-13
-6.9963181e-06
-5.5889916e-13
-1.7522394e-05
-3.9101975e-13
-2.4588202e-05
3.5410435e-14
-2.8146851e-05
4.4243586e-13
-2.8146851e-05
6.0234861e-13
-2.4588202e-05
1.6205124e-13
-1.7522394e-05
-6.9963183e-06
-2.7822068e-13
-6.9963174e-06
-4.1817076e-13
-1.7522393e-05
-4.6579094e-13
-2.4588201e-05
2.7861215e-14
-2.8146851e-05
5.3007249e-13
-2.8146851e-05
4.6175608e-13
-2.4588202e-05
2.9351254e-13
-1.7522394e-05
-6.9963176e-06
-1.2539039e-13
-6.9963176e-06
-5.2686544e-13
-1.7522393e-05
-3.6319693e-13
-2.4588202e-05
3.3813071e-14
-2.8146852e-05
4.1160463e-13
-2.8146852e-05
5.6801508e-13
-2.4588202e-05
1.4796532e-13
-1.7522394e-05
-6.9963177e-06
-2.6454753e-13
-6.9963169e-06
-3.8715027e-13
-1.7522392e-05
-4.3811202e-13
-2.4588201e-05
2.6292188e-14
-2.8146852e-05
4.995583e-13
-2.8146852e-05
4.2851641e-13
-2.4588202e-05
2.7877136e-13
-1.7522393e-05
-6.9963171e-06
-1.1273738e-13
-6.9963171e-06
-4.9581979e-13
-1.7522393e-05
-3.3621995e-13
-2.4588202e-05
3.2341197e-14
-2.8146852e-05
3.81853e-13
-2.8146853e-05
5.3484207e-13
-2.4588202e-05
1.3433084e-13
-1.7522393e-05
-6.9963172e-06
-2.5129337e-13
-6.9963164e-06
-3.5707916e-13
-1.7522392e-05
-4.1128134e-13
-2.4588201e-05
2.484931e-14
-2.8146852e-05
4.7011766e-13
-2.8146852e-05
3.9639518e-13
-2.4588201e-05
2.6452656e-13
-1.7522392e-05
-6.9963166e-06
-1.0045526e-13
-6.9963166e-06
-4.6573776e-13
-1.7522392e-05
-3.1006851e-13
-2.4588202e-05
3.0990582e-14
-2.8146853e-05
3.531518e-13
-2.8146853e-05
5.0279731e-13