/*--------------------------------*- C++ -*----------------------------------*\
| =========                 |                                                 |
| \\      /  F ield         | OpenFOAM: The Open Source CFD Toolbox           |
|  \\    /   O peration     | Version:  5.x                                   |
|   \\  /    A nd           | Web:      www.OpenFOAM.org                      |
|    \\/     M anipulation  |                                                 |
\*---------------------------------------------------------------------------*/
FoamFile
{
    version     2.0;
    format      ascii;
    class       volSymmTensorField;
    location    "8";
    object      sigma;
}
// * * * * * * * * * * * * * * * * * * * * * * * * * * * * * * * * * * * * * //

dimensions      [0 2 -2 0 0 0 0];

internalField   nonuniform List<symmTensor> 
1920
(
(0.0031550053 0.016433086 0 -0.010062042 0 0)
(-0.00048750556 0.0065960222 0 0.0017715591 0 0)
(-0.0020769363 0.003991112 0 0.001621495 0 0)
(-0.0016559645 0.0012542247 0 0.001645262 0 0)
(-0.0016559299 -0.0012542354 0 0.0016452267 0 0)
(-0.0020769415 -0.003991087 0 0.0016215009 0 0)
(-0.00048750918 -0.0065960155 0 0.0017715629 0 0)
(0.003155004 -0.016433086 0 -0.010062038 0 0)
(0.0054850585 0.011481228 0 -0.0056834534 0 0)
(0.00062837205 0.0023468105 0 0.00057525373 0 0)
(-0.0033654067 0.00092671366 0 0.0028641284 0 0)
(-0.0033994401 0.00047274019 0 0.0031186806 0 0)
(-0.0033994181 -0.00047274332 0 0.003118657 0 0)
(-0.003365415 -0.00092669504 0 0.0028641367 0 0)
(0.00062837523 -0.002346809 0 0.00057524637 0 0)
(0.0054850585 -0.01148123 0 -0.0056834541 0 0)
(0.0050116611 0.009879988 0 -0.0065790322 0 0)
(0.0012584417 0.0014373651 0 -0.00068581943 0 0)
(-0.0028652683 0.00035993153 0 0.0025638439 0 0)
(-0.0036530388 0.0001290351 0 0.003476475 0 0)
(-0.0036530558 -0.00012903268 0 0.0034764941 0 0)
(-0.00286525 -0.00035993056 0 0.0025638225 0 0)
(0.0012584487 -0.0014373748 0 -0.00068582506 0 0)
(0.0050116638 -0.0098799894 0 -0.0065790369 0 0)
(0.0039122981 0.0091556142 0 -0.0054735679 0 0)
(0.0014269573 0.0019419107 0 -0.0012095101 0 0)
(-0.0021615244 0.00040508147 0 0.002024236 0 0)
(-0.003361103 4.5607788e-05 0 0.0032995053 0 0)
(-0.0033610387 -4.5620776e-05 0 0.0032994431 0 0)
(-0.002161617 -0.00040497092 0 0.0020243274 0 0)
(0.001426962 -0.0019418974 0 -0.0012095142 0 0)
(0.0039123045 -0.0091556141 0 -0.0054735743 0 0)
(0.0029820757 0.0087898115 0 -0.0041702707 0 0)
(0.0013205427 0.0026473237 0 -0.0012797591 0 0)
(-0.0015423858 0.00081593166 0 0.0014504586 0 0)
(-0.0028572752 0.00014203186 0 0.0028201639 0 0)
(-0.0028574385 -0.00014202867 0 0.0028203281 0 0)
(-0.0015428222 -0.00081563532 0 0.0014508903 0 0)
(0.0013205344 -0.002647315 0 -0.0012797505 0 0)
(0.002982084 -0.0087898072 0 -0.0041702792 0 0)
(0.0022832722 0.0085382071 0 -0.0032287323 0 0)
(0.0011237543 0.0033872037 0 -0.0011916259 0 0)
(-0.0011207707 0.0012456825 0 0.0010436204 0 0)
(-0.0021058158 0.00031163943 0 0.0020840267 0 0)
(-0.0021057532 -0.00031167028 0 0.0020839614 0 0)
(-0.001120226 -0.0012461593 0 0.0010430781 0 0)
(0.0011237909 -0.0033872 0 -0.0011916631 0 0)
(0.0022832792 -0.0085382004 0 -0.0032287384 0 0)
(0.0015685786 0.0082827133 0 -0.0023858829 0 0)
(0.00086765996 0.0040526602 0 -0.0010188963 0 0)
(-0.00073474525 0.0017380718 0 0.00066330069 0 0)
(-0.0016104771 0.00046863876 0 0.0015998769 0 0)
(-0.001610446 -0.00046865411 0 0.0015998463 0 0)
(-0.00073465403 -0.0017381354 0 0.00066320848 0 0)
(0.00086768061 -0.0040526528 0 -0.001018916 0 0)
(0.0015685797 -0.008282699 0 -0.0023858831 0 0)
(0.0010936208 0.0081173105 0 -0.0018454722 0 0)
(0.00067819065 0.00444616 0 -0.00088248172 0 0)
(-0.00046877681 0.0021654057 0 0.00039485194 0 0)
(-0.0011961872 0.00061311829 0 0.0011922108 0 0)
(-0.0011962543 -0.00061310109 0 0.0011922767 0 0)
(-0.00046877875 -0.0021653751 0 0.00039485414 0 0)
(0.00067819384 -0.0044461769 0 -0.00088248688 0 0)
(0.0010936184 -0.0081172956 0 -0.0018454679 0 0)
(0.00075123543 0.0080045024 0 -0.0014631979 0 0)
(0.00048877369 0.0048096448 0 -0.00073527868 0 0)
(-0.00030828539 0.0024746262 0 0.00022675882 0 0)
(-0.00088530239 0.00072904844 0 0.0008828157 0 0)
(-0.00088514126 -0.00072911397 0 0.00088265753 0 0)
(-0.00030823954 -0.0024746787 0 0.00022671285 0 0)
(0.00048880522 -0.0048096056 0 -0.00073530911 0 0)
(0.00075125323 -0.0080044873 0 -0.0014632148 0 0)
(0.0005050945 0.0079255861 0 -0.0011925178 0 0)
(0.00035415341 0.0050404736 0 -0.00062930119 0 0)
(-0.00019626704 0.0027242505 0 0.00010563187 0 0)
(-0.00060440996 0.00084017589 0 0.00060103076 0 0)
(-0.00060455885 -0.00084012447 0 0.00060117817 0 0)
(-0.00019628616 -0.0027241881 0 0.00010565253 0 0)
(0.00035414862 -0.0050404884 0 -0.00062929731 0 0)
(0.00050508853 -0.0079255639 0 -0.0011925092 0 0)
(0.00033211938 0.0078719318 0 -0.0010049426 0 0)
(0.00025094875 0.0052064736 0 -0.00054615288 0 0)
(-0.0001224466 0.0029110187 0 2.3761883e-05 0 0)
(-0.0004160592 0.00091842087 0 0.00041069703 0 0)
(-0.00041595905 -0.00091847208 0 0.0004105967 0 0)
(-0.00012241283 -0.0029110797 0 2.3726211e-05 0 0)
(0.00025097281 -0.0052064323 0 -0.00054617485 0 0)
(0.00033213705 -0.0078719132 0 -0.0010049583 0 0)
(0.00021432803 0.007836421 0 -0.00087861452 0 0)
(0.00017282013 0.0053250777 0 -0.00048171455 0 0)
(-7.4937102e-05 0.0030459408 0 -3.0097524e-05 0 0)
(-0.00027679028 0.0009789239 0 0.00026938894 0 0)
(-0.00027678797 -0.00097893181 0 0.00026938622 0 0)
(-7.495598e-05 -0.0030458868 0 -3.0077084e-05 0 0)
(0.0001728088 -0.0053250873 0 -0.00048170385 0 0)
(0.00021431996 -0.0078363954 0 -0.00087860345 0 0)
(0.00013607769 0.0078134226 0 -0.00079543157 0 0)
(0.00011631491 0.0054063658 0 -0.00043424829 0 0)
(-4.4920187e-05 0.0031409974 0 -6.4870653e-05 0 0)
(-0.00018224454 0.0010213972 0 0.0001731108 0 0)
(-0.000182388 -0.0010213535 0 0.0001732544 0 0)
(-4.4905958e-05 -0.0031410468 0 -6.4886744e-05 0 0)
(0.00011632851 -0.0054063312 0 -0.00043425974 0 0)
(0.0001360897 -0.0078134018 0 -0.00079544075 0 0)
(8.4871161e-05 0.0077987438 0 -0.00074140336 0 0)
(7.6757152e-05 0.0054605003 0 -0.00040054356 0 0)
(-2.6247345e-05 0.0032065926 0 -8.6950844e-05 0 0)
(-0.00011742914 0.0010514312 0 0.00010695733 0 0)
(-0.00011718866 -0.001051542 0 0.00010671585 0 0)
(-2.6264326e-05 -0.0032065576 0 -8.6932829e-05 0 0)
(7.6742199e-05 -0.0054605051 0 -0.00040052856 0 0)
(8.4864001e-05 -0.0077987191 0 -0.00074139302 0 0)
(5.1877264e-05 0.0077895404 0 -0.00070683668 0 0)
(4.9713423e-05 0.0054958718 0 -0.0003772132 0 0)
(-1.4888022e-05 0.0032509205 0 -0.00010066979 0 0)
(-7.5185182e-05 0.0010715986 0 6.3751444e-05 0 0)
(-7.5456433e-05 -0.0010715023 0 6.4023197e-05 0 0)
(-1.4887529e-05 -0.0032509554 0 -0.00010067179 0 0)
(4.9717032e-05 -0.0054958481 0 -0.00037721501 0 0)
(5.1882904e-05 -0.0077895199 0 -0.00070683918 0 0)
(3.0993933e-05 0.0077838935 0 -0.00068510582 0 0)
(3.1589748e-05 0.005518566 0 -0.00036140878 0 0)
(-8.085825e-06 0.0032804395 0 -0.00010905622 0 0)
(-4.7064144e-05 0.0010853385 0 3.4960369e-05 0 0)
(-4.6597885e-05 -0.0010855625 0 3.44912e-05 0 0)
(-8.1000367e-06 -0.0032804234 0 -0.00010904161 0 0)
(3.1575344e-05 -0.005518567 0 -0.00036139391 0 0)
(3.0987581e-05 -0.0077838717 0 -0.00068509636 0 0)
(1.7990199e-05 0.0077805115 0 -0.00067167067 0 0)
(1.9647302e-05 0.0055329144 0 -0.00035088769 0 0)
(-4.1437053e-06 0.0032996708 0 -0.00011403276 0 0)
(-2.8882337e-05 0.0010944313 0 1.633005e-05 0 0)
(-2.9428201e-05 -0.0010942025 0 1.6878743e-05 0 0)
(-4.1499041e-06 -0.0032996932 0 -0.00011402772 0 0)
(1.9644237e-05 -0.0055329008 0 -0.00035088331 0 0)
(1.79909e-05 -0.007780493 0 -0.00067166835 0 0)
(1.0079745e-05 0.0077785537 0 -0.00066356049 0 0)
(1.194635e-05 0.0055417807 0 -0.00034403861 0 0)
(-1.9138739e-06 0.0033120453 0 -0.00011692329 0 0)
(-1.7452614e-05 0.0011002849 0 4.6089783e-06 0 0)
(-1.701633e-05 -0.0011005076 0 4.1695759e-06 0 0)
(-1.9247421e-06 -0.0033120429 0 -0.0001169125 0 0)
(1.1934748e-05 -0.0055417795 0 -0.00034402643 0 0)
(1.0074326e-05 -0.0077785355 0 -0.00066355226 0 0)
(5.3593789e-06 0.0077774652 0 -0.00065876344 0 0)
(7.0488158e-06 0.0055471809 0 -0.00033964324 0 0)
(-7.19164e-07 0.0033198014 0 -0.0001185264 0 0)
(-9.8551398e-06 0.0011042478 0 -3.1767884e-06 0 0)
(-1.0217946e-05 -0.0011040935 0 -2.8121435e-06 0 0)
(-7.2698374e-07 -0.0033198145 0 -0.00011851946 0 0)
(7.0426982e-06 -0.0055471745 0 -0.00033963625 0 0)
(5.3573245e-06 -0.0077774494 0 -0.00065875874 0 0)
(2.7004607e-06 0.0077769107 0 -0.00065609178 0 0)
(4.0225808e-06 0.0055503623 0 -0.00033690091 0 0)
(-1.1366309e-07 0.0033246021 0 -0.00011938046 0 0)
(-5.6138079e-06 0.0011065377 0 -7.5320155e-06 0 0)
(-5.2418394e-06 -0.0011067373 0 -7.9069584e-06 0 0)
(-1.2146186e-07 -0.0033246072 0 -0.00011937309 0 0)
(4.0143652e-06 -0.0055503599 0 -0.00033689218 0 0)
(2.6965671e-06 -0.0077768959 0 -0.00065608547 0 0)
(1.1399153e-06 0.0077766366 0 -0.00065454431 0 0)
(2.1754947e-06 0.0055522026 0 -0.00033521305 0 0)
(1.5775834e-07 0.0033274728 0 -0.00011979525 0 0)
(-2.6039067e-06 0.0011081838 0 -1.0614176e-05 0 0)
(-3.016021e-06 -0.0011079915 0 -1.0199278e-05 0 0)
(1.5081821e-07 -0.0033274802 0 -0.00011978901 0 0)
(2.1687039e-06 -0.0055522 0 -0.00033520571 0 0)
(1.1366354e-06 -0.0077766232 0 -0.00065453878 0 0)
(3.3895059e-07 0.007776537 0 -0.00065376801 0 0)
(1.098416e-06 0.0055532083 0 -0.00033421697 0 0)
(2.5229898e-07 0.0033291571 0 -0.00011997189 0 0)
(-1.4241919e-06 0.001108881 0 -1.1831218e-05 0 0)
(-1.1623888e-06 -0.0011090337 0 -1.2095684e-05 0 0)
(2.465375e-07 -0.0033291646 0 -0.00011996666 0 0)
(1.0929103e-06 -0.0055532055 0 -0.00033421103 0 0)
(3.3621389e-07 -0.0077765248 0 -0.00065376325 0 0)
(-5.2458914e-08 0.0077765278 0 -0.00065340135 0 0)
(4.7791557e-07 0.0055537369 0 -0.00033363874 0 0)
(2.599779e-07 0.0033300968 0 -0.00012002143 0 0)
(-4.011259e-07 0.0011094827 0 -1.2878645e-05 0 0)
(-4.4658937e-07 -0.0011094727 0 -1.2833037e-05 0 0)
(2.5452312e-07 -0.0033301012 0 -0.00012001658 0 0)
(4.7166361e-07 -0.0055537357 0 -0.00033363212 0 0)
(-5.5734455e-08 -0.0077765167 0 -0.00065339624 0 0)
(-2.2013872e-07 0.0077765598 0 -0.00065325666 0 0)
(1.5043433e-07 0.005553983 0 -0.00033332661 0 0)
(2.2795397e-07 0.0033305984 0 -0.00012001103 0 0)
(-1.9304084e-08 0.0011097336 0 -1.3271505e-05 0 0)
(-6.9089654e-08 -0.0011097174 0 -1.3221817e-05 0 0)
(2.2323725e-07 -0.0033306055 0 -0.00012000683 0 0)
(1.4656516e-07 -0.0055539804 0 -0.00033332241 0 0)
(-2.2280197e-07 -0.0077765496 0 -0.00065325231 0 0)
(-2.6057402e-07 0.0077766037 0 -0.00065323423 0 0)
(-1.2876404e-08 0.0055540822 0 -0.00033316929 0 0)
(1.8591074e-07 0.0033308404 0 -0.00011997624 0 0)
(1.5815644e-07 0.0011098632 0 -1.3454769e-05 0 0)
(1.4666602e-07 -0.0011098675 0 -1.3443491e-05 0 0)
(1.817692e-07 -0.0033308441 0 -0.00011997259 0 0)
(-1.8102544e-08 -0.005554081 0 -0.00033316377 0 0)
(-2.6328875e-07 -0.0077765943 0 -0.00065323003 0 0)
(-2.4508332e-07 0.0077766498 0 -0.00065326499 0 0)
(-9.3401671e-08 0.0055541088 0 -0.00033308633 0 0)
(1.4592811e-07 0.0033309382 0 -0.00011993861 0 0)
(2.0762598e-07 0.0011099159 0 -1.3506128e-05 0 0)
(1.9041663e-07 -0.0011099125 0 -1.3489102e-05 0 0)
(1.4159999e-07 -0.0033309435 0 -0.00011993468 0 0)
(-9.7280127e-08 -0.0055541073 0 -0.00033308219 0 0)
(-2.4765662e-07 -0.007776641 0 -0.000653261 0 0)
(-2.0757946e-07 0.0077766861 0 -0.00065331264 0 0)
(-1.1103913e-07 0.0055540921 0 -0.0003330668 0 0)
(1.0766107e-07 0.003330969 0 -0.00011989821 0 0)
(2.0779975e-07 0.001109931 0 -1.3506991e-05 0 0)
(2.0891406e-07 -0.0011099404 0 -1.3508351e-05 0 0)
(1.0366629e-07 -0.0033309729 0 -0.00011989464 0 0)
(-1.1569424e-07 -0.0055540905 0 -0.00033306177 0 0)
(-2.0959185e-07 -0.0077766782 0 -0.00065330942 0 0)
(-1.6348112e-07 0.0077767188 0 -0.00065336498 0 0)
(-1.0731987e-07 0.0055540593 0 -0.00033306678 0 0)
(7.6663385e-08 0.003330954 0 -0.00011986523 0 0)
(1.8814105e-07 0.0011099365 0 -1.3486929e-05 0 0)
(1.8778782e-07 -0.0011099426 0 -1.3486871e-05 0 0)
(7.3117591e-08 -0.0033309582 0 -0.00011986198 0 0)
(-1.1093455e-07 -0.0055540582 0 -0.00033306292 0 0)
(-1.6533534e-07 -0.0077767119 0 -0.00065336199 0 0)
(-1.2531362e-07 0.0077767415 0 -0.00065340829 0 0)
(-9.0033393e-08 0.0055540285 0 -0.00033308096 0 0)
(5.3923427e-08 0.003330926 0 -0.00011983936 0 0)
(1.5947096e-07 0.0011099269 0 -1.3457805e-05 0 0)
(1.5749842e-07 -0.0011099344 0 -1.3455988e-05 0 0)
(5.0468724e-08 -0.0033309293 0 -0.00011983623 0 0)
(-9.3951876e-08 -0.0055540282 0 -0.00033307678 0 0)
(-1.2726448e-07 -0.0077767347 0 -0.0006534053 0 0)
(-9.4037246e-08 0.00777676 0 -0.00065344393 0 0)
(-7.311326e-08 0.0055540007 0 -0.00033309418 0 0)
(3.6298312e-08 0.0033308931 0 -0.00011981972 0 0)
(1.2300269e-07 0.0011099157 0 -1.3420425e-05 0 0)
(1.2171237e-07 -0.0011099214 0 -1.3419374e-05 0 0)
(3.3485219e-08 -0.0033308972 0 -0.00011981717 0 0)
(-7.6315153e-08 -0.0055539999 0 -0.0003330908 0 0)
(-9.5689761e-08 -0.0077767542 0 -0.00065344133 0 0)
(-6.7248528e-08 0.0077767731 0 -0.000653473 0 0)
(-5.6340173e-08 0.0055539774 0 -0.00033310937 0 0)
(2.5365751e-08 0.0033308627 0 -0.00011980638 0 0)
(9.8023911e-08 0.0011099056 0 -1.3394981e-05 0 0)
(9.5139559e-08 -0.0011099103 0 -1.3392216e-05 0 0)
(2.2267624e-08 -0.0033308652 0 -0.00011980356 0 0)
(-5.9724475e-08 -0.0055539769 0 -0.00033310575 0 0)
(-6.8875806e-08 -0.0077767675 0 -0.0006534705 0 0)
(-4.8941077e-08 0.0077767834 0 -0.00065349359 0 0)
(-4.2596483e-08 0.005553959 0 -0.0003331206 0 0)
(1.7326563e-08 0.0033308407 0 -0.00011979702 0 0)
(6.9290763e-08 0.0011098929 0 -1.336548e-05 0 0)
(6.788238e-08 -0.0011098974 0 -1.3364264e-05 0 0)
(1.4424308e-08 -0.0033308436 0 -0.00011979432 0 0)
(-4.5450312e-08 -0.0055539585 0 -0.00033311759 0 0)
(-5.0388812e-08 -0.0077767787 0 -0.00065349135 0 0)
(-3.378752e-08 0.0077767899 0 -0.00065350958 0 0)
(-3.1439999e-08 0.0055539446 0 -0.00033313124 0 0)
(1.3292786e-08 0.0033308215 0 -0.00011979117 0 0)
(5.2044341e-08 0.001109886 0 -1.3347982e-05 0 0)
(5.0769858e-08 -0.0011098897 0 -1.3346814e-05 0 0)
(1.074105e-08 -0.0033308238 0 -0.00011978884 0 0)
(-3.4255888e-08 -0.0055539443 0 -0.00033312822 0 0)
(-3.5189316e-08 -0.0077767854 0 -0.00065350745 0 0)
(-2.4235182e-08 0.0077767953 0 -0.00065352034 0 0)
(-2.2868834e-08 0.0055539342 0 -0.00033313828 0 0)
(8.6072069e-09 0.0033308076 0 -0.00011978602 0 0)
(3.5673364e-08 0.0011098777 0 -1.333111e-05 0 0)
(3.4478347e-08 -0.0011098807 0 -1.3330053e-05 0 0)
(6.1752132e-09 -0.0033308098 0 -0.00011978374 0 0)
(-2.5283364e-08 -0.0055539341 0 -0.00033313572 0 0)
(-2.5478128e-08 -0.0077767916 0 -0.00065351844 0 0)
(-1.662866e-08 0.0077767986 0 -0.00065352818 0 0)
(-1.6766077e-08 0.0055539262 0 -0.00033314438 0 0)
(6.5803611e-09 0.0033307959 0 -0.00011978286 0 0)
(2.6483477e-08 0.0011098744 0 -1.3321856e-05 0 0)
(2.5915656e-08 -0.0011098775 0 -1.3321377e-05 0 0)
(4.5738158e-09 -0.0033307978 0 -0.00011978101 0 0)
(-1.9046617e-08 -0.0055539261 0 -0.00033314193 0 0)
(-1.7824935e-08 -0.007776795 0 -0.00065352638 0 0)
(-1.1998105e-08 0.0077768013 0 -0.00065353352 0 0)
(-1.1768803e-08 0.0055539206 0 -0.00033314834 0 0)
(4.3588701e-09 0.0033307881 0 -0.00011978055 0 0)
(1.8911307e-08 0.0011098702 0 -1.3313972e-05 0 0)
(1.7960748e-08 -0.0011098723 0 -1.3313125e-05 0 0)
(2.4880831e-09 -0.00333079 0 -0.0001197788 0 0)
(-1.3750834e-08 -0.0055539207 0 -0.00033314622 0 0)
(-1.3066102e-08 -0.0077767984 0 -0.00065353191 0 0)
(-8.460336e-09 0.0077768031 0 -0.00065353704 0 0)
(-9.0342761e-09 0.0055539165 0 -0.00033315135 0 0)
(3.5320143e-09 0.0033307816 0 -0.00011977896 0 0)
(1.4232525e-08 0.0011098685 0 -1.3309326e-05 0 0)
(1.3889682e-08 -0.0011098711 0 -1.3309057e-05 0 0)
(1.9929529e-09 -0.0033307833 0 -0.00011977754 0 0)
(-1.0834262e-08 -0.0055539165 0 -0.0003331494 0 0)
(-9.4657148e-09 -0.0077768003 0 -0.00065353554 0 0)
(-6.4393594e-09 0.0077768045 0 -0.00065353957 0 0)
(-6.2282657e-09 0.0055539136 0 -0.00033315332 0 0)
(2.417214e-09 0.0033307773 0 -0.00011977795 0 0)
(1.0904205e-08 0.0011098665 0 -1.3305782e-05 0 0)
(1.0348737e-08 -0.0011098685 0 -1.3305316e-05 0 0)
(1.0342298e-09 -0.0033307789 0 -0.00011977667 0 0)
(-7.7821842e-09 -0.0055539137 0 -0.00033315164 0 0)
(-7.3274229e-09 -0.0077768022 0 -0.00065353823 0 0)
(-4.8011667e-09 0.0077768056 0 -0.00065354108 0 0)
(-5.3341403e-09 0.0055539115 0 -0.00033315464 0 0)
(2.2304958e-09 0.0033307735 0 -0.00011977716 0 0)
(8.6363774e-09 0.0011098656 0 -1.3303596e-05 0 0)
(8.4459591e-09 -0.001109868 0 -1.3303469e-05 0 0)
(1.1009642e-09 -0.0033307749 0 -0.00011977614 0 0)
(-6.7034284e-09 -0.0055539116 0 -0.00033315316 0 0)
(-5.6185833e-09 -0.0077768035 0 -0.00065353985 0 0)
(-4.0747374e-09 0.0077768065 0 -0.00065354223 0 0)
(-3.7223846e-09 0.00555391 0 -0.00033315551 0 0)
(1.5577858e-09 0.0033307713 0 -0.00011977672 0 0)
(7.1734656e-09 0.0011098644 0 -1.330196e-05 0 0)
(6.8476346e-09 -0.0011098662 0 -1.3301714e-05 0 0)
(5.8324142e-10 -0.0033307727 0 -0.00011977583 0 0)
(-4.8868462e-09 -0.0055539102 0 -0.00033315425 0 0)
(-4.7860946e-09 -0.0077768047 0 -0.00065354114 0 0)
(-3.2255862e-09 0.0077768073 0 -0.0006535429 0 0)
(-3.7008009e-09 0.0055539089 0 -0.00033315604 0 0)
(1.666447e-09 0.0033307688 0 -0.0001197763 0 0)
(6.0616808e-09 0.0011098639 0 -1.3300956e-05 0 0)
(5.9385669e-09 -0.0011098661 0 -1.3300885e-05 0 0)
(8.8503015e-10 -0.00333077 0 -0.00011977561 0 0)
(-4.7025376e-09 -0.005553909 0 -0.00033315495 0 0)
(-3.8687321e-09 -0.0077768056 0 -0.00065354191 0 0)
(-3.0762684e-09 0.007776808 0 -0.00065354343 0 0)
(-2.6536166e-09 0.005553908 0 -0.00033315639 0 0)
(1.1475817e-09 0.0033307678 0 -0.00011977608 0 0)
(5.4391126e-09 0.0011098631 0 -1.3300178e-05 0 0)
(5.2379789e-09 -0.0011098647 0 -1.3300049e-05 0 0)
(5.0221068e-10 -0.003330769 0 -0.00011977551 0 0)
(-3.4927736e-09 -0.0055539082 0 -0.00033315547 0 0)
(-3.6309264e-09 -0.0077768065 0 -0.00065354257 0 0)
(-2.5411737e-09 0.0077768087 0 -0.00065354377 0 0)
(-3.0016576e-09 0.0055539074 0 -0.0003331566 0 0)
(1.3788568e-09 0.003330766 0 -0.00011977583 0 0)
(4.8330364e-09 0.0011098628 0 -1.3299693e-05 0 0)
(4.7573237e-09 -0.0011098646 0 -1.3299659e-05 0 0)
(8.7259552e-10 -0.003330767 0 -0.0001197754 0 0)
(-3.7081633e-09 -0.0055539075 0 -0.00033315582 0 0)
(-3.0344204e-09 -0.0077768073 0 -0.00065354299 0 0)
(-2.6303915e-09 0.0077768092 0 -0.00065354405 0 0)
(-2.191894e-09 0.0055539068 0 -0.00033315673 0 0)
(9.1572196e-10 0.0033307655 0 -0.0001197757 0 0)
(4.5802798e-09 0.0011098622 0 -1.3299293e-05 0 0)
(4.4583566e-09 -0.0011098635 0 -1.3299237e-05 0 0)
(5.1698873e-10 -0.0033307665 0 -0.00011977536 0 0)
(-2.7759015e-09 -0.0055539069 0 -0.00033315609 0 0)
(-3.053126e-09 -0.007776808 0 -0.00065354337 0 0)
(-2.2145823e-09 0.0077768098 0 -0.00065354426 0 0)
(-2.6839412e-09 0.0055539063 0 -0.00033315682 0 0)
(1.2004528e-09 0.0033307641 0 -0.00011977552 0 0)
(4.1825799e-09 0.0011098619 0 -1.3299023e-05 0 0)
(4.1477898e-09 -0.0011098635 0 -1.3299022e-05 0 0)
(8.9322238e-10 -0.0033307649 0 -0.00011977529 0 0)
(-3.1683743e-09 -0.0055539064 0 -0.00033315628 0 0)
(-2.5852078e-09 -0.0077768087 0 -0.00065354365 0 0)
(-2.3963151e-09 0.0077768103 0 -0.00065354443 0 0)
(-1.9621237e-09 0.0055539059 0 -0.00033315688 0 0)
(7.6304633e-10 0.0033307638 0 -0.00011977543 0 0)
(4.0868166e-09 0.0011098614 0 -1.3298783e-05 0 0)
(4.0181705e-09 -0.0011098625 0 -1.3298777e-05 0 0)
(5.3366765e-10 -0.0033307646 0 -0.00011977526 0 0)
(-2.3585469e-09 -0.0055539059 0 -0.00033315644 0 0)
(-2.7130609e-09 -0.0077768093 0 -0.0006535439 0 0)
(-2.0217305e-09 0.0077768109 0 -0.00065354459 0 0)
(-2.5042978e-09 0.0055539055 0 -0.00033315693 0 0)
(1.0756963e-09 0.0033307625 0 -0.00011977531 0 0)
(3.7713307e-09 0.0011098612 0 -1.32986e-05 0 0)
(3.7667274e-09 -0.0011098626 0 -1.3298622e-05 0 0)
(8.9903691e-10 -0.0033307631 0 -0.0001197752 0 0)
(-2.8326805e-09 -0.0055539055 0 -0.00033315656 0 0)
(-2.2963796e-09 -0.0077768099 0 -0.00065354411 0 0)
(-2.2374049e-09 0.0077768114 0 -0.00065354473 0 0)
(-1.8085309e-09 0.0055539051 0 -0.00033315697 0 0)
(6.540727e-10 0.0033307623 0 -0.00011977524 0 0)
(3.7416473e-09 0.0011098607 0 -1.3298429e-05 0 0)
(3.7056189e-09 -0.0011098618 0 -1.3298451e-05 0 0)
(5.2968557e-10 -0.003330763 0 -0.00011977517 0 0)
(-2.0765849e-09 -0.0055539051 0 -0.00033315666 0 0)
(-2.4728971e-09 -0.0077768105 0 -0.00065354431 0 0)
(-1.8748061e-09 0.007776812 0 -0.00065354486 0 0)
(-2.3642599e-09 0.0055539048 0 -0.00033315701 0 0)
(9.843054e-10 0.0033307611 0 -0.00011977514 0 0)
(3.4583854e-09 0.0011098605 0 -1.329828e-05 0 0)
(3.4705889e-09 -0.0011098617 0 -1.3298315e-05 0 0)
(8.8318491e-10 -0.0033307617 0 -0.0001197751 0 0)
(-2.5903976e-09 -0.0055539047 0 -0.00033315676 0 0)
(-2.0775797e-09 -0.0077768111 0 -0.00065354449 0 0)
(-2.1027845e-09 0.0077768124 0 -0.00065354498 0 0)
(-1.6723693e-09 0.0055539044 0 -0.00033315705 0 0)
(5.739702e-10 0.0033307609 0 -0.00011977509 0 0)
(3.4580909e-09 0.0011098601 0 -1.3298141e-05 0 0)
(3.4379288e-09 -0.0011098611 0 -1.3298177e-05 0 0)
(5.0577135e-10 -0.0033307615 0 -0.00011977507 0 0)
(-1.859242e-09 -0.0055539043 0 -0.00033315684 0 0)
(-2.2788709e-09 -0.0077768116 0 -0.00065354465 0 0)
(-1.742466e-09 0.007776813 0 -0.00065354511 0 0)
(-2.2297145e-09 0.0055539042 0 -0.0003331571 0 0)
(9.163427e-10 0.0033307598 0 -0.00011977501 0 0)
(3.1886484e-09 0.0011098599 0 -1.3298009e-05 0 0)
(3.2056733e-09 -0.001109861 0 -1.3298044e-05 0 0)
(8.5047725e-10 -0.0033307603 0 -0.00011977501 0 0)
(-2.3944873e-09 -0.005553904 0 -0.00033315692 0 0)
(-1.8938344e-09 -0.0077768121 0 -0.00065354481 0 0)
(-1.9756621e-09 0.0077768133 0 -0.00065354522 0 0)
(-1.535898e-09 0.0055539038 0 -0.00033315715 0 0)
(5.1420056e-10 0.0033307597 0 -0.00011977498 0 0)
(3.2035795e-09 0.0011098595 0 -1.3297886e-05 0 0)
(3.1869951e-09 -0.0011098605 0 -1.3297924e-05 0 0)
(4.6819326e-10 -0.0033307602 0 -0.00011977498 0 0)
(-1.6764765e-09 -0.0055539037 0 -0.00033315699 0 0)
(-2.1103914e-09 -0.0077768126 0 -0.00065354495 0 0)
(-1.615196e-09 0.0077768139 0 -0.00065354534 0 0)
(-2.0925862e-09 0.0055539036 0 -0.0003331572 0 0)
(8.6493968e-10 0.0033307587 0 -0.00011977491 0 0)
(2.9417566e-09 0.0011098593 0 -1.3297764e-05 0 0)
(2.9550619e-09 -0.0011098604 0 -1.3297792e-05 0 0)
(8.074665e-10 -0.0033307591 0 -0.00011977491 0 0)
(-2.2250528e-09 -0.0055539034 0 -0.00033315706 0 0)
(-1.7315204e-09 -0.0077768131 0 -0.0006535451 0 0)
(-1.851774e-09 0.0077768142 0 -0.00065354545 0 0)
(-1.3969459e-09 0.0055539032 0 -0.00033315725 0 0)
(4.6842174e-10 0.0033307585 0 -0.00011977489 0 0)
(2.9665405e-09 0.001109859 0 -1.3297653e-05 0 0)
(2.9456561e-09 -0.0011098599 0 -1.3297685e-05 0 0)
(4.2316366e-10 -0.003330759 0 -0.00011977488 0 0)
(-1.5151423e-09 -0.0055539031 0 -0.00033315712 0 0)
(-1.9591644e-09 -0.0077768135 0 -0.00065354523 0 0)
(-1.4911634e-09 0.0077768147 0 -0.00065354556 0 0)
(-1.9538401e-09 0.005553903 0 -0.00033315731 0 0)
(8.2459573e-10 0.0033307576 0 -0.00011977483 0 0)
(2.7104997e-09 0.0011098588 0 -1.3297538e-05 0 0)
(2.7151905e-09 -0.0011098598 0 -1.3297554e-05 0 0)
(7.5965567e-10 -0.0033307579 0 -0.00011977482 0 0)
(-2.0729637e-09 -0.0055539028 0 -0.00033315719 0 0)
(-1.5847636e-09 -0.007776814 0 -0.00065354536 0 0)
(-1.7309432e-09 0.007776815 0 -0.00065354566 0 0)
(-1.2580996e-09 0.0055539027 0 -0.00033315737 0 0)
(4.3163164e-10 0.0033307575 0 -0.00011977481 0 0)
(2.7430126e-09 0.0011098585 0 -1.3297437e-05 0 0)
(2.7136592e-09 -0.0011098594 0 -1.3297458e-05 0 0)
(3.7542402e-10 -0.0033307579 0 -0.0001197748 0 0)
(-1.3688038e-09 -0.0055539025 0 -0.00033315725 0 0)
(-1.8212402e-09 -0.0077768143 0 -0.00065354547 0 0)
(-1.3708099e-09 0.0077768155 0 -0.00065354577 0 0)
(-1.8166634e-09 0.0055539025 0 -0.00033315743 0 0)
(7.9100745e-10 0.0033307566 0 -0.00011977477 0 0)
(2.4923366e-09 0.0011098583 0 -1.3297328e-05 0 0)
(2.4865228e-09 -0.0011098592 0 -1.3297332e-05 0 0)
(7.1093831e-10 -0.0033307569 0 -0.00011977474 0 0)
(-1.9335777e-09 -0.0055539023 0 -0.00033315731 0 0)
(-1.4504479e-09 -0.0077768148 0 -0.00065354559 0 0)
(-1.6140071e-09 0.0077768158 0 -0.00065354586 0 0)
(-1.1226089e-09 0.0055539022 0 -0.00033315748 0 0)
(4.0008694e-10 0.0033307565 0 -0.00011977475 0 0)
(2.5316156e-09 0.001109858 0 -1.3297236e-05 0 0)
(2.4923812e-09 -0.0011098589 0 -1.3297246e-05 0 0)
(3.281463e-10 -0.0033307568 0 -0.00011977472 0 0)
(-1.2340149e-09 -0.005553902 0 -0.00033315736 0 0)
(-1.6942591e-09 -0.0077768151 0 -0.0006535457 0 0)
(-1.2550088e-09 0.0077768163 0 -0.00065354597 0 0)
(-1.6840468e-09 0.005553902 0 -0.00033315754 0 0)
(7.6106364e-10 0.0033307557 0 -0.00011977471 0 0)
(2.2862962e-09 0.0011098579 0 -1.3297134e-05 0 0)
(2.2701951e-09 -0.0011098587 0 -1.3297124e-05 0 0)
(6.6379416e-10 -0.003330756 0 -0.00011977467 0 0)
(-1.8042863e-09 -0.0055539018 0 -0.00033315742 0 0)
(-1.3265309e-09 -0.0077768156 0 -0.00065354581 0 0)
(-1.5018305e-09 0.0077768165 0 -0.00065354605 0 0)
(-9.9303693e-10 0.0055539017 0 -0.0003331576 0 0)
(3.7120685e-10 0.0033307556 0 -0.0001197747 0 0)
(2.3318021e-09 0.0011098576 0 -1.3297049e-05 0 0)
(2.2831006e-09 -0.0011098585 0 -1.3297048e-05 0 0)
(2.8326123e-10 -0.0033307559 0 -0.00011977465 0 0)
(-1.1087084e-09 -0.0055539015 0 -0.00033315748 0 0)
(-1.5765385e-09 -0.0077768159 0 -0.0006535459 0 0)
(-1.1445012e-09 0.0077768169 0 -0.00065354615 0 0)
(-1.5580735e-09 0.0055539015 0 -0.00033315766 0 0)
(7.3271529e-10 0.0033307548 0 -0.00011977467 0 0)
(2.0919287e-09 0.0011098575 0 -1.3296953e-05 0 0)
(2.0670277e-09 -0.0011098583 0 -1.3296933e-05 0 0)
(6.1964053e-10 -0.0033307551 0 -0.00011977461 0 0)
(-1.6834789e-09 -0.0055539013 0 -0.00033315753 0 0)
(-1.2114976e-09 -0.0077768163 0 -0.00065354601 0 0)
(-1.3950454e-09 0.0077768171 0 -0.00065354623 0 0)
(-8.7097668e-10 0.0055539013 0 -0.00033315771 0 0)
(3.4338054e-10 0.0033307547 0 -0.00011977466 0 0)
(2.1432933e-09 0.0011098572 0 -1.3296875e-05 0 0)
(2.0865893e-09 -0.0011098581 0 -1.3296864e-05 0 0)
(2.4178639e-10 -0.0033307551 0 -0.00011977459 0 0)
(-9.9156461e-10 -0.0055539011 0 -0.00033315759 0 0)
(-1.4668114e-09 -0.0077768165 0 -0.00065354609 0 0)
(-1.0397765e-09 0.0077768175 0 -0.00065354632 0 0)
(-1.4399602e-09 0.0055539011 0 -0.00033315777 0 0)
(7.0476813e-10 0.003330754 0 -0.00011977463 0 0)
(1.9089626e-09 0.0011098571 0 -1.3296785e-05 0 0)
(1.8773597e-09 -0.0011098579 0 -1.3296756e-05 0 0)
(5.7913942e-10 -0.0033307543 0 -0.00011977455 0 0)
(-1.5701343e-09 -0.0055539009 0 -0.00033315764 0 0)
(-1.104202e-09 -0.0077768169 0 -0.00065354619 0 0)
(-1.2940336e-09 0.0077768177 0 -0.00065354639 0 0)
(-7.5731658e-10 0.0055539009 0 -0.00033315782 0 0)
(3.1574057e-10 0.003330754 0 -0.00011977462 0 0)
(1.9658998e-09 0.0011098569 0 -1.3296714e-05 0 0)
(1.9031312e-09 -0.0011098577 0 -1.3296695e-05 0 0)
(2.041102e-10 -0.0033307543 0 -0.00011977454 0 0)
(-8.8174536e-10 -0.0055539007 0 -0.00033315769 0 0)
(-1.3641444e-09 -0.0077768171 0 -0.00065354627 0 0)
(-9.4109531e-10 0.0077768181 0 -0.00065354648 0 0)
(-1.3303641e-09 0.0055539007 0 -0.00033315787 0 0)
(6.7665819e-10 0.0033307533 0 -0.00011977459 0 0)
(1.7371894e-09 0.0011098568 0 -1.329663e-05 0 0)
(1.7011312e-09 -0.0011098575 0 -1.3296594e-05 0 0)
(5.4245124e-10 -0.0033307536 0 -0.00011977451 0 0)
(-1.4636256e-09 -0.0055539005 0 -0.00033315774 0 0)
(-1.0038122e-09 -0.0077768175 0 -0.00065354636 0 0)
(-1.1989758e-09 0.0077768182 0 -0.00065354655 0 0)
(-6.5244689e-10 0.0055539005 0 -0.00033315792 0 0)
(2.879402e-10 0.0033307533 0 -0.00011977459 0 0)
(1.7994541e-09 0.0011098566 0 -1.3296564e-05 0 0)
(1.7326393e-09 -0.0011098574 0 -1.329654e-05 0 0)
(1.7021912e-10 -0.0033307536 0 -0.0001197745 0 0)
(-7.7873651e-10 -0.0055539003 0 -0.00033315779 0 0)
(-1.2678679e-09 -0.0077768177 0 -0.00065354643 0 0)
(-8.4853615e-10 0.0077768186 0 -0.00065354663 0 0)
(-1.2294177e-09 0.0055539004 0 -0.00033315797 0 0)
(6.4824288e-10 0.0033307527 0 -0.00011977456 0 0)
(1.5764095e-09 0.0011098565 0 -1.3296486e-05 0 0)
(1.5380065e-09 -0.0011098571 0 -1.3296446e-05 0 0)
(5.0943198e-10 -0.0033307529 0 -0.00011977447 0 0)
(-1.3635837e-09 -0.0055539002 0 -0.00033315784 0 0)
(-9.0973674e-10 -0.007776818 0 -0.00065354651 0 0)
(-1.1099002e-09 0.0077768187 0 -0.00065354669 0 0)
(-5.5627843e-10 0.0055539001 0 -0.00033315802 0 0)
(2.5996335e-10 0.0033307527 0 -0.00011977456 0 0)
(1.6437744e-09 0.0011098563 0 -1.3296426e-05 0 0)
(1.5747767e-09 -0.001109857 0 -1.3296398e-05 0 0)
(1.398701e-10 -0.0033307529 0 -0.00011977446 0 0)
(-6.822276e-10 -0.0055539 0 -0.00033315789 0 0)
(-1.1775106e-09 -0.0077768182 0 -0.00065354658 0 0)
(-7.6204364e-10 0.007776819 0 -0.00065354677 0 0)
(-1.1368984e-09 0.0055539 0 -0.00033315807 0 0)
(6.1963243e-10 0.0033307521 0 -0.00011977453 0 0)
(1.4264006e-09 0.0011098562 0 -1.3296353e-05 0 0)
(1.3874735e-09 -0.0011098568 0 -1.3296311e-05 0 0)
(4.7977547e-10 -0.0033307523 0 -0.00011977444 0 0)
(-1.2697907e-09 -0.0055538998 0 -0.00033315794 0 0)
(-8.2155754e-10 -0.0077768185 0 -0.00065354666 0 0)
(-1.0267261e-09 0.0077768191 0 -0.00065354682 0 0)
(-4.6846197e-10 0.0055538998 0 -0.00033315811 0 0)
(2.3197928e-10 0.0033307521 0 -0.00011977453 0 0)
(1.4986405e-09 0.0011098561 0 -1.3296298e-05 0 0)
(1.4290451e-09 -0.0011098568 0 -1.3296268e-05 0 0)
(1.1270915e-10 -0.0033307523 0 -0.00011977443 0 0)
(-5.9201866e-10 -0.0055538997 0 -0.00033315798 0 0)
(-1.0927391e-09 -0.0077768187 0 -0.00065354672 0 0)
(-6.8147507e-10 0.0077768194 0 -0.0006535469 0 0)
(-1.0524063e-09 0.0055538997 0 -0.00033315815 0 0)
(5.910661e-10 0.0033307516 0 -0.00011977451 0 0)
(1.2868976e-09 0.001109856 0 -1.329623e-05 0 0)
(1.2489166e-09 -0.0011098566 0 -1.3296187e-05 0 0)
(4.5310944e-10 -0.0033307518 0 -0.00011977441 0 0)
(-1.1820997e-09 -0.0055538995 0 -0.00033315803 0 0)
(-7.3897094e-10 -0.007776819 0 -0.0006535468 0 0)
(-9.4929382e-10 0.0077768195 0 -0.00065354695 0 0)
(-3.8851823e-10 0.0055538995 0 -0.00033315819 0 0)
(2.0424037e-10 0.0033307516 0 -0.00011977451 0 0)
(1.3637806e-09 0.0011098559 0 -1.329618e-05 0 0)
(1.2948522e-09 -0.0011098565 0 -1.3296149e-05 0 0)
(8.8350115e-11 -0.0033307518 0 -0.00011977441 0 0)
(-5.0795412e-10 -0.0055538994 0 -0.00033315807 0 0)
(-1.0133061e-09 -0.0077768191 0 -0.00065354685 0 0)
(-6.0662988e-10 0.0077768198 0 -0.00065354702 0 0)
(-9.7543994e-10 0.0055538994 0 -0.00033315823 0 0)