/*--------------------------------*- C++ -*----------------------------------*\
| =========                 |                                                 |
| \\      /  F ield         | OpenFOAM: The Open Source CFD Toolbox           |
|  \\    /   O peration     | Version:  5.x                                   |
|   \\  /    A nd           | Web:      www.OpenFOAM.org                      |
|    \\/     M anipulation  |                                                 |
\*---------------------------------------------------------------------------*/
FoamFile
{
    version     2.0;
    format      ascii;
    class       volSymmTensorField;
    location    "8";
    object      sigma_0;
}
// * * * * * * * * * * * * * * * * * * * * * * * * * * * * * * * * * * * * * //

dimensions      [0 2 -2 0 0 0 0];

internalField   nonuniform List<symmTensor> 
1920
(
(0.0029815096 0.015671009 0 -0.0096357178 0 0)
(-0.00047436895 0.0062575249 0 0.0016980317 0 0)
(-0.0019664112 0.0038189703 0 0.0015280873 0 0)
(-0.0015579617 0.0011972122 0 0.0015474766 0 0)
(-0.001557927 -0.0011972223 0 0.0015474417 0 0)
(-0.0019664166 -0.0038189446 0 0.0015280929 0 0)
(-0.00047437273 -0.0062575181 0 0.001698036 0 0)
(0.0029815083 -0.015671009 0 -0.0096357139 0 0)
(0.0052434251 0.010931508 0 -0.005422203 0 0)
(0.0005942535 0.0022254217 0 0.00055049024 0 0)
(-0.0032287379 0.00085757106 0 0.0027433067 0 0)
(-0.0032488518 0.0004453932 0 0.0029777593 0 0)
(-0.0032488295 -0.00044539584 0 0.0029777342 0 0)
(-0.0032287467 -0.0008575519 0 0.0027433166 0 0)
(0.00059425634 -0.0022254198 0 0.00055048239 0 0)
(0.0052434249 -0.010931511 0 -0.0054222033 0 0)
(0.0047765092 0.0093945646 0 -0.0062908097 0 0)
(0.0012014119 0.0013459969 0 -0.00066093879 0 0)
(-0.0027415992 0.0003280255 0 0.0024493597 0 0)
(-0.0034806192 0.00011893757 0 0.0033106894 0 0)
(-0.003480637 -0.00011893465 0 0.0033107106 0 0)
(-0.0027415809 -0.00032802475 0 0.002449337 0 0)
(0.0012014184 -0.001346007 0 -0.00066094318 0 0)
(0.0047765117 -0.009394566 0 -0.0062908146 0 0)
(0.0037181764 0.0087035646 0 -0.0052241941 0 0)
(0.0013618072 0.0018351628 0 -0.0011590191 0 0)
(-0.002060745 0.00037479813 0 0.001927856 0 0)
(-0.0031990128 3.8514951e-05 0 0.0031398459 0 0)
(-0.0031989477 -3.8527748e-05 0 0.0031397817 0 0)
(-0.0020608353 -0.00037468876 0 0.001927946 0 0)
(0.0013618116 -0.0018351493 0 -0.0011590234 0 0)
(0.0037181826 -0.0087035651 0 -0.0052242002 0 0)
(0.0028311447 0.0083580928 0 -0.0039781544 0 0)
(0.0012578791 0.0025087806 0 -0.0012227791 0 0)
(-0.0014664559 0.00077175081 0 0.0013775601 0 0)
(-0.0027211818 0.00013201146 0 0.0026848293 0 0)
(-0.0027213451 -0.00013200861 0 0.0026849944 0 0)
(-0.0014669047 -0.00077144417 0 0.0013780037 0 0)
(0.0012578705 -0.0025087725 0 -0.0012227698 0 0)
(0.0028311528 -0.0083580886 0 -0.003978163 0 0)
(0.0021726493 0.0081220834 0 -0.0030861473 0 0)
(0.0010693244 0.0032156681 0 -0.0011374684 0 0)
(-0.001068378 0.0011782066 0 0.00099386637 0 0)
(-0.001996052 0.00029526073 0 0.0019742358 0 0)
(-0.0019959917 -0.00029529135 0 0.0019741723 0 0)
(-0.0010678253 -0.0011786925 0 0.00099331634 0 0)
(0.0010693608 -0.0032156642 0 -0.0011375056 0 0)
(0.0021726562 -0.0081220773 0 -0.0030861532 0 0)
(0.0014885659 0.0078766332 0 -0.0022788924 0 0)
(0.00082303839 0.0038551816 0 -0.00097086343 0 0)
(-0.00069640304 0.0016523282 0 0.00062756148 0 0)
(-0.0015262501 0.00044452505 0 0.0015154046 0 0)
(-0.0015262163 -0.00044454166 0 0.0015153714 0 0)
(-0.00069631109 -0.0016523924 0 0.00062746851 0 0)
(0.00082305922 -0.0038551746 0 -0.00097088331 0 0)
(0.0014885668 -0.0078766189 0 -0.0022788926 0 0)
(0.0010376858 0.0077188599 0 -0.0017651933 0 0)
(0.00064403576 0.004225684 0 -0.00084242218 0 0)
(-0.00044424305 0.0020577414 0 0.00037303908 0 0)
(-0.0011337233 0.00058166162 0 0.0011294801 0 0)
(-0.0011337941 -0.00058164318 0 0.0011295499 0 0)
(-0.00044424459 -0.0020577112 0 0.00037304071 0 0)
(0.00064403883 -0.0042257012 0 -0.00084242711 0 0)
(0.0010376832 -0.0077188456 0 -0.0017651891 0 0)
(0.00071300483 0.007611521 0 -0.0014021914 0 0)
(0.00046314225 0.0045725996 0 -0.00070201224 0 0)
(-0.00029219165 0.0023506061 0 0.0002136102 0 0)
(-0.00083888334 0.00069173035 0 0.00083620524 0 0)
(-0.00083871919 -0.00069179731 0 0.00083604369 0 0)
(-0.00029214517 -0.0023506591 0 0.00021356406 0 0)
(0.00046317438 -0.0045725606 0 -0.00070204362 0 0)
(0.00071302286 -0.0076115061 0 -0.0014022085 0 0)
(0.00047940079 0.0075364324 0 -0.0011450201 0 0)
(0.00033560664 0.0047910647 0 -0.00060203204 0 0)
(-0.00018590817 0.0025875256 0 9.8442507e-05 0 0)
(-0.00057281543 0.00079708348 0 0.00056935725 0 0)
(-0.00057296631 -0.00079703115 0 0.00056950725 0 0)
(-0.0001859271 -0.0025874628 0 9.846252e-05 0 0)
(0.00033560206 -0.0047910795 0 -0.00060202802 0 0)
(0.00047939483 -0.0075364107 0 -0.0011450119 0 0)
(0.00031512274 0.0074854034 0 -0.00096670752 0 0)
(0.00023786806 0.0049482702 0 -0.00052365588 0 0)
(-0.00011588506 0.0027647316 0 2.0578081e-05 0 0)
(-0.00039413805 0.00087136222 0 0.00038882582 0 0)
(-0.00039403499 -0.00087141485 0 0.00038872199 0 0)
(-0.00011585042 -0.0027647934 0 2.054222e-05 0 0)
(0.00023789292 -0.004948229 0 -0.00052367917 0 0)
(0.00031514078 -0.0074853847 0 -0.00096672354 0 0)
(0.00020325468 0.0074516729 0 -0.00084663335 0 0)
(0.00016378775 0.0050608186 0 -0.00046279835 0 0)
(-7.0862161e-05 0.0028926735 0 -3.0633559e-05 0 0)
(-0.00026183232 0.00092889534 0 0.00025459233 0 0)
(-0.00026183078 -0.00092890275 0 0.00025459108 0 0)
(-7.0880636e-05 -0.002892619 0 -3.061409e-05 0 0)
(0.00016377679 -0.0050608281 0 -0.00046278759 0 0)
(0.00020324675 -0.0074516475 0 -0.00084662276 0 0)
(0.00012898751 0.0074298549 0 -0.00076761533 0 0)
(0.00011018439 0.0051380147 0 -0.00041794134 0 0)
(-4.2436533e-05 0.0029827422 0 -6.3689858e-05 0 0)
(-0.00017221844 0.00096921133 0 0.00016333263 0 0)
(-0.00017236306 -0.00096916727 0 0.00016347676 0 0)
(-4.2421531e-05 -0.0029827921 0 -6.3706041e-05 0 0)
(0.00011019879 -0.0051379801 0 -0.00041795411 0 0)
(0.00012899988 -0.0074298338 0 -0.00076762482 0 0)
(8.0410811e-05 0.007415947 0 -0.00071632027 0 0)
(7.2678578e-05 0.0051894077 0 -0.00038609961 0 0)
(-2.4770884e-05 0.0030448669 0 -8.4676068e-05 0 0)
(-0.00011082133 0.00099770118 0 0.00010066158 0 0)
(-0.00011057737 -0.00099781347 0 0.00010041728 0 0)
(-2.4787363e-05 -0.0030448316 0 -8.4659083e-05 0 0)
(7.266407e-05 -0.0051894123 0 -0.00038608467 0 0)
(8.0403859e-05 -0.0074159222 0 -0.00071631044 0 0)
(4.9129774e-05 0.0074072318 0 -0.00068352003 0 0)
(4.7048791e-05 0.0052229785 0 -0.0003640697 0 0)
(-1.4034963e-05 0.0030868107 0 -9.7710648e-05 0 0)
(-7.0923944e-05 0.0010167915 0 5.9847846e-05 0 0)
(-7.1201168e-05 -0.0010166926 0 6.0125057e-05 0 0)
(-1.403384e-05 -0.003086846 0 -9.7712735e-05 0 0)
(4.7053084e-05 -0.0052229548 0 -0.00036407261 0 0)
(4.913571e-05 -0.0074072108 0 -0.00068352278 0 0)
(2.934236e-05 0.0074018888 0 -0.00066291264 0 0)
(2.9886358e-05 0.0052445009 0 -0.00034915659 0 0)
(-7.6127533e-06 0.0031147329 0 -0.00010567681 0 0)
(-4.4373134e-05 0.0010297899 0 3.2657658e-05 0 0)
(-4.3896183e-05 -0.0010300192 0 3.2178304e-05 0 0)
(-7.6264429e-06 -0.0031147168 0 -0.00010566313 0 0)
(2.9872428e-05 -0.0052445016 0 -0.0003491419 0 0)
(2.9336239e-05 -0.0074018667 0 -0.00066290363 0 0)
(1.7027904e-05 0.0073986884 0 -0.00065017938 0 0)
(1.8582927e-05 0.0052581043 0 -0.00033923293 0 0)
(-3.8964002e-06 0.0031329056 0 -0.00011040187 0 0)
(-2.7222882e-05 0.0010383894 0 1.5079879e-05 0 0)
(-2.7778777e-05 -0.0010381561 0 1.5638187e-05 0 0)
(-3.9020613e-06 -0.0031329283 0 -0.000110397 0 0)
(1.8580445e-05 -0.0052580906 0 -0.00033922944 0 0)
(1.7028853e-05 -0.0073986693 0 -0.00065017727 0 0)
(9.5427432e-06 0.0073968359 0 -0.00064249853 0 0)
(1.1299071e-05 0.0052665022 0 -0.00033277766 0 0)
(-1.7963878e-06 0.0031445968 0 -0.00011314559 0 0)
(-1.6464913e-05 0.0010439125 0 4.04346e-06 0 0)
(-1.6020192e-05 -0.00104414 0 3.5959804e-06 0 0)
(-1.8067318e-06 -0.0031445947 0 -0.00011313561 0 0)
(1.1287969e-05 -0.0052665006 0 -0.00033276581 0 0)
(9.5375735e-06 -0.0073968171 0 -0.00064249067 0 0)
(5.0766459e-06 0.0073958044 0 -0.00063795682 0 0)
(6.6690049e-06 0.0052716159 0 -0.00032863527 0 0)
(-6.7411244e-07 0.0031519172 0 -0.00011466696 0 0)
(-9.2812688e-06 0.0010476689 0 -3.3196098e-06 0 0)
(-9.651987e-06 -0.0010475111 0 -2.9473099e-06 0 0)
(-6.8142724e-07 -0.0031519306 0 -0.00011466031 0 0)
(6.6634229e-06 -0.0052716093 0 -0.000328629 0 0)
(5.0748016e-06 -0.0073957878 0 -0.00063795229 0 0)
(2.5645268e-06 0.0073952781 0 -0.00063543002 0 0)
(3.8085836e-06 0.0052746255 0 -0.00032605245 0 0)
(-1.0555802e-07 0.0031564483 0 -0.00011547747 0 0)
(-5.3048267e-06 0.0010498222 0 -7.4051684e-06 0 0)
(-4.9232899e-06 -0.0010500276 0 -7.7894797e-06 0 0)
(-1.1283202e-07 -0.0031564538 0 -0.00011547081 0 0)
(3.8008954e-06 -0.0052746228 0 -0.00032604414 0 0)
(2.560894e-06 -0.0073952624 0 -0.00063542403 0 0)
(1.0887461e-06 0.0073950165 0 -0.00063396617 0 0)
(2.0633757e-06 0.0052763666 0 -0.00032446154 0 0)
(1.4783437e-07 0.0031591558 0 -0.00011587167 0 0)
(-2.4402396e-06 0.0010513915 0 -1.0338581e-05 0 0)
(-2.8604362e-06 -0.0010511955 0 -9.9157798e-06 0 0)
(1.4139108e-07 -0.0031591635 0 -0.00011586582 0 0)
(2.0570964e-06 -0.0052763638 0 -0.00032445482 0 0)
(1.0857089e-06 -0.0073950022 0 -0.00063396085 0 0)
(3.3111848e-07 0.0073949199 0 -0.00063323067 0 0)
(1.0445442e-06 0.0052773174 0 -0.00032352298 0 0)
(2.3639465e-07 0.003160745 0 -0.00011603995 0 0)
(-1.3556598e-06 0.0010520361 0 -1.1459076e-05 0 0)
(-1.0900062e-06 -0.0010521918 0 -1.172725e-05 0 0)
(2.3112698e-07 -0.003160753 0 -0.00011603533 0 0)
(1.0395562e-06 -0.0052773142 0 -0.00032351752 0 0)
(3.2862457e-07 -0.0073949066 0 -0.00063322617 0 0)
(-4.1123623e-08 0.0073949095 0 -0.00063288219 0 0)
(4.5774316e-07 0.0052778175 0 -0.00032297669 0 0)
(2.4280833e-07 0.0031616316 0 -0.00011608809 0 0)
(-3.7775961e-07 0.0010526111 0 -1.2460088e-05 0 0)
(-4.226758e-07 -0.0010526022 0 -1.2415126e-05 0 0)
(2.378123e-07 -0.0031616363 0 -0.00011608365 0 0)
(4.5195195e-07 -0.0052778159 0 -0.0003229706 0 0)
(-4.4180061e-08 -0.0073948972 0 -0.00063287726 0 0)
(-2.0118613e-07 0.0073949384 0 -0.00063274319 0 0)
(1.4636971e-07 0.0052780506 0 -0.0003226815 0 0)
(2.131438e-07 0.0031621055 0 -0.00011607921 0 0)
(-2.0066546e-08 0.0010528465 0 -1.2828595e-05 0 0)
(-7.0457387e-08 -0.0010528308 0 -1.2778257e-05 0 0)
(2.0883552e-07 -0.0031621131 0 -0.00011607548 0 0)
(1.4293564e-07 -0.0052780475 0 -0.00032267772 0 0)
(-2.0364357e-07 -0.0073949269 0 -0.00063273903 0 0)
(-2.4171137e-07 0.0073949791 0 -0.00063272028 0 0)
(-8.787915e-09 0.0052781452 0 -0.00032253146 0 0)
(1.734896e-07 0.0031623346 0 -0.00011604736 0 0)
(1.4757597e-07 0.001052968 0 -1.300163e-05 0 0)
(1.3610229e-07 -0.0010529733 0 -1.2990432e-05 0 0)
(1.6970526e-07 -0.0031623387 0 -0.00011604404 0 0)
(-1.3649251e-08 -0.0052781436 0 -0.00032252633 0 0)
(-2.4426383e-07 -0.0073949683 0 -0.0006327162 0 0)
(-2.2823139e-07 0.0073950222 0 -0.00063274775 0 0)
(-8.7316187e-08 0.0052781715 0 -0.00032245153 0 0)
(1.3671012e-07 0.0031624277 0 -0.00011601255 0 0)
(1.9423279e-07 0.001053017 0 -1.305032e-05 0 0)
(1.768004e-07 -0.0010530144 0 -1.3033044e-05 0 0)
(1.32649e-07 -0.0031624334 0 -0.00011600894 0 0)
(-9.0916588e-08 -0.0052781694 0 -0.00032244766 0 0)
(-2.3067831e-07 -0.007395012 0 -0.00063274385 0 0)
(-1.948592e-07 0.0073950561 0 -0.00063279135 0 0)
(-1.0429141e-07 0.0052781564 0 -0.00032243198 0 0)
(1.0078841e-07 0.0031624575 0 -0.00011597512 0 0)
(1.9567244e-07 0.0010530307 0 -1.3052288e-05 0 0)
(1.9687773e-07 -0.0010530411 0 -1.3053782e-05 0 0)
(9.6985043e-08 -0.0031624618 0 -0.00011597174 0 0)
(-1.087694e-07 -0.0052781543 0 -0.00032242713 0 0)
(-1.9679792e-07 -0.0073950468 0 -0.00063278815 0 0)
(-1.5384972e-07 0.0073950872 0 -0.00063283974 0 0)
(-1.027042e-07 0.005278126 0 -0.00032243086 0 0)
(7.2321194e-08 0.0031624436 0 -0.00011594437 0 0)
(1.7875485e-07 0.0010530361 0 -1.3035176e-05 0 0)
(1.784943e-07 -0.0010530433 0 -1.3035191e-05 0 0)
(6.8852508e-08 -0.0031624482 0 -0.00011594123 0 0)
(-1.0624345e-07 -0.0052781243 0 -0.00032242706 0 0)
(-1.556734e-07 -0.0073950788 0 -0.00063283673 0 0)
(-1.1935418e-07 0.0073951089 0 -0.00063287972 0 0)
(-8.6217405e-08 0.0052780973 0 -0.00032244353 0 0)
(5.0822043e-08 0.0031624173 0 -0.00011592032 0 0)
(1.5352771e-07 0.0010530269 0 -1.3009391e-05 0 0)
(1.5151862e-07 -0.0010530355 0 -1.3007573e-05 0 0)
(4.7366249e-08 -0.003162421 0 -0.00011591719 0 0)
(-9.0156289e-08 -0.0052780963 0 -0.00032243932 0 0)
(-1.2134117e-07 -0.0073951006 0 -0.00063287664 0 0)
(-9.0151571e-08 0.0073951268 0 -0.00063291267 0 0)
(-7.1710777e-08 0.0052780714 0 -0.00032245524 0 0)
(3.4818016e-08 0.0031623858 0 -0.00011590197 0 0)
(1.1978208e-07 0.0010530161 0 -1.2974934e-05 0 0)
(1.1849026e-07 -0.0010530229 0 -1.2973865e-05 0 0)
(3.1899125e-08 -0.0031623903 0 -0.00011589935 0 0)
(-7.5042286e-08 -0.0052780699 0 -0.00032245172 0 0)
(-9.1879783e-08 -0.0073951196 0 -0.00063290994 0 0)
(-6.5792571e-08 0.0073951398 0 -0.00063293977 0 0)
(-5.5478295e-08 0.0052780494 0 -0.00032246914 0 0)
(2.4376696e-08 0.0031623565 0 -0.00011588963 0 0)
(9.7452408e-08 0.0010530064 0 -1.295203e-05 0 0)
(9.4455695e-08 -0.0010530122 0 -1.2949187e-05 0 0)
(2.1099336e-08 -0.0031623595 0 -0.00011588664 0 0)
(-5.9076134e-08 -0.0052780483 0 -0.00032246529 0 0)
(-6.7556121e-08 -0.0073951328 0 -0.00063293709 0 0)
(-4.8427623e-08 0.0073951502 0 -0.0006329589 0 0)
(-4.3613076e-08 0.005278032 0 -0.00032247933 0 0)
(1.7375486e-08 0.0031623352 0 -0.00011588093 0 0)
(7.0391959e-08 0.0010529939 0 -1.2924379e-05 0 0)
(6.8879833e-08 -0.0010529994 0 -1.2923044e-05 0 0)
(1.4193988e-08 -0.0031623385 0 -0.00011587799 0 0)
(-4.6773471e-08 -0.005278031 0 -0.000322476 0 0)
(-5.0040443e-08 -0.0073951442 0 -0.00063295644 0 0)
(-3.4754737e-08 0.0073951571 0 -0.00063297394 0 0)
(-3.2448059e-08 0.0052780182 0 -0.00032248921 0 0)
(1.3374241e-08 0.0031623163 0 -0.00011587556 0 0)
(5.4690831e-08 0.0010529869 0 -1.2908302e-05 0 0)
(5.3276647e-08 -0.0010529918 0 -1.2907029e-05 0 0)
(1.0497317e-08 -0.003162319 0 -0.0001158729 0 0)
(-3.5629483e-08 -0.0052780173 0 -0.0003224858 0 0)
(-3.6369936e-08 -0.0073951513 0 -0.00063297155 0 0)
(-2.5388098e-08 0.007395163 0 -0.00063298404 0 0)
(-2.5235463e-08 0.0052780081 0 -0.00032249569 0 0)
(9.3797559e-09 0.0031623022 0 -0.00011587069 0 0)
(3.9111444e-08 0.0010529785 0 -1.2892383e-05 0 0)
(3.7762262e-08 -0.0010529825 0 -1.2891157e-05 0 0)
(6.5486368e-09 -0.0031623049 0 -0.00011586804 0 0)
(-2.8080371e-08 -0.0052780075 0 -0.00032249268 0 0)
(-2.6856866e-08 -0.007395158 0 -0.00063298186 0 0)
(-1.8709968e-08 0.0073951668 0 -0.00063299149 0 0)
(-1.8722887e-08 0.0052780002 0 -0.00032250142 0 0)
(7.1172917e-09 0.0031622902 0 -0.00011586771 0 0)
(3.0728909e-08 0.001052975 0 -1.28838e-05 0 0)
(2.9980002e-08 -0.0010529791 0 -1.2883174e-05 0 0)
(4.6951357e-09 -0.0031622925 0 -0.00011586545 0 0)
(-2.1462218e-08 -0.0052779996 0 -0.00032249849 0 0)
(-2.0164539e-08 -0.0073951621 0 -0.0006329894 0 0)
(-1.3852039e-08 0.0073951702 0 -0.0006329966 0 0)
(-1.4750867e-08 0.0052779945 0 -0.00032250513 0 0)
(5.4131611e-09 0.0031622818 0 -0.00011586549 0 0)
(2.3405393e-08 0.0010529704 0 -1.2876314e-05 0 0)
(2.2292515e-08 -0.0010529735 0 -1.287529e-05 0 0)
(3.0796739e-09 -0.0031622841 0 -0.00011586331 0 0)
(-1.7226406e-08 -0.0052779942 0 -0.0003225025 0 0)
(-1.5174035e-08 -0.0073951662 0 -0.00063299469 0 0)
(-1.0965846e-08 0.0073951726 0 -0.00063300002 0 0)
(-1.1379663e-08 0.0052779901 0 -0.00032250798 0 0)
(4.2241404e-09 0.0031622745 0 -0.00011586394 0 0)
(1.9124593e-08 0.0010529684 0 -1.2871924e-05 0 0)
(1.8575471e-08 -0.0010529719 0 -1.2871482e-05 0 0)
(2.2342808e-09 -0.0031622766 0 -0.00011586207 0 0)
(-1.3672242e-08 -0.0052779898 0 -0.00032250553 0 0)
(-1.2242528e-08 -0.0073951689 0 -0.00063299821 0 0)
(-8.5245577e-09 0.0073951747 0 -0.00063300251 0 0)
(-9.4291742e-09 0.0052779869 0 -0.00032250987 0 0)
(3.5463744e-09 0.0031622693 0 -0.00011586293 0 0)
(1.5757967e-08 0.0010529659 0 -1.2868486e-05 0 0)
(1.5041802e-08 -0.0010529688 0 -1.2867843e-05 0 0)
(1.6894233e-09 -0.0031622714 0 -0.0001158612 0 0)
(-1.148332e-08 -0.0052779868 0 -0.00032250768 0 0)
(-9.6651053e-09 -0.0073951716 0 -0.00063300089 0 0)
(-7.4146341e-09 0.0073951765 0 -0.00063300404 0 0)
(-7.7879852e-09 0.0052779845 0 -0.00032251114 0 0)
(2.942923e-09 0.0031622646 0 -0.00011586212 0 0)
(1.3678868e-08 0.0010529645 0 -1.2866344e-05 0 0)
(1.3286274e-08 -0.0010529678 0 -1.2866046e-05 0 0)
(1.3743422e-09 -0.0031622664 0 -0.00011586066 0 0)
(-9.6327794e-09 -0.0052779844 0 -0.00032250916 0 0)
(-8.4900902e-09 -0.0073951736 0 -0.00063300253 0 0)
(-6.1902353e-09 0.0073951781 0 -0.00063300523 0 0)
(-6.9591509e-09 0.0052779827 0 -0.00032251199 0 0)
(2.6709132e-09 0.0031622615 0 -0.00011586164 0 0)
(1.2049335e-08 0.0010529629 0 -1.2864683e-05 0 0)
(1.1573931e-08 -0.0010529655 0 -1.286427e-05 0 0)
(1.2528339e-09 -0.0031622633 0 -0.00011586033 0 0)
(-8.5869961e-09 -0.0052779826 0 -0.00032251026 0 0)
(-7.1304139e-09 -0.0073951756 0 -0.00063300389 0 0)
(-5.8212252e-09 0.0073951796 0 -0.00063300597 0 0)
(-6.1451651e-09 0.0052779812 0 -0.00032251252 0 0)
(2.3421683e-09 0.003162258 0 -0.00011586118 0 0)
(1.1032658e-08 0.0010529619 0 -1.2863627e-05 0 0)
(1.0725399e-08 -0.0010529648 0 -1.2863403e-05 0 0)
(1.1679683e-09 -0.0031622596 0 -0.00011586009 0 0)
(-7.5689395e-09 -0.0052779812 0 -0.00032251099 0 0)
(-6.6912828e-09 -0.0073951772 0 -0.00063300475 0 0)
(-5.1485439e-09 0.0073951809 0 -0.00063300657 0 0)
(-5.8537057e-09 0.00527798 0 -0.00032251288 0 0)
(2.2084331e-09 0.0031622561 0 -0.0001158609 0 0)
(1.0193332e-08 0.0010529606 0 -1.2862773e-05 0 0)
(9.8649746e-09 -0.0010529628 0 -1.2862499e-05 0 0)
(1.1777338e-09 -0.0031622576 0 -0.00011585996 0 0)
(-7.0911988e-09 -0.00527798 0 -0.00032251156 0 0)
(-5.8949517e-09 -0.0073951789 0 -0.0006330055 0 0)
(-5.0778496e-09 0.0073951822 0 -0.00063300699 0 0)
(-5.3956609e-09 0.005277979 0 -0.0003225131 0 0)
(1.9963496e-09 0.0031622533 0 -0.00011586059 0 0)
(9.6480282e-09 0.0010529598 0 -1.2862202e-05 0 0)
(9.4138901e-09 -0.0010529623 0 -1.286204e-05 0 0)
(1.1642477e-09 -0.0031622546 0 -0.00011585984 0 0)
(-6.4501275e-09 -0.0052779789 0 -0.00032251196 0 0)
(-5.7575159e-09 -0.0073951804 0 -0.00063300602 0 0)
(-4.6390469e-09 0.0073951834 0 -0.00063300734 0 0)
(-5.3319741e-09 0.005277978 0 -0.00032251325 0 0)
(1.9125885e-09 0.0031622519 0 -0.0001158604 0 0)
(9.1635134e-09 0.0010529587 0 -1.286171e-05 0 0)
(8.9431464e-09 -0.0010529606 0 -1.2861536e-05 0 0)
(1.2009072e-09 -0.0031622532 0 -0.00011585978 0 0)
(-6.2355896e-09 -0.005277978 0 -0.00032251229 0 0)
(-5.2108703e-09 -0.0073951818 0 -0.0006330065 0 0)
(-4.6834467e-09 0.0073951847 0 -0.00063300763 0 0)
(-5.0169423e-09 0.0052779772 0 -0.00032251335 0 0)
(1.7546489e-09 0.0031622495 0 -0.00011586017 0 0)
(8.817877e-09 0.001052958 0 -1.2861345e-05 0 0)
(8.6540174e-09 -0.0010529601 0 -1.2861244e-05 0 0)
(1.1967699e-09 -0.0031622505 0 -0.00011585968 0 0)
(-5.7680621e-09 -0.0052779771 0 -0.00032251254 0 0)
(-5.1976269e-09 -0.0073951832 0 -0.00063300687 0 0)
(-4.3391142e-09 0.0073951858 0 -0.00063300787 0 0)
(-5.0368018e-09 0.0052779764 0 -0.00032251343 0 0)
(1.6953165e-09 0.0031622483 0 -0.00011586003 0 0)
(8.4896072e-09 0.001052957 0 -1.2861013e-05 0 0)
(8.3529583e-09 -0.0010529586 0 -1.2860917e-05 0 0)
(1.228452e-09 -0.0031622493 0 -0.00011585964 0 0)
(-5.6721564e-09 -0.0052779763 0 -0.00032251276 0 0)
(-4.7626951e-09 -0.0073951845 0 -0.00063300723 0 0)
(-4.4233163e-09 0.0073951871 0 -0.00063300811 0 0)
(-4.774521e-09 0.0052779757 0 -0.0003225135 0 0)
(1.5690375e-09 0.0031622461 0 -0.00011585984 0 0)
(8.2268101e-09 0.0010529564 0 -1.2860736e-05 0 0)
(8.1224492e-09 -0.0010529581 0 -1.2860687e-05 0 0)
(1.2156638e-09 -0.0031622469 0 -0.00011585955 0 0)
(-5.2910146e-09 -0.0052779756 0 -0.00032251294 0 0)
(-4.8012399e-09 -0.0073951858 0 -0.00063300753 0 0)
(-4.1160028e-09 0.0073951881 0 -0.00063300831 0 0)
(-4.8164719e-09 0.005277975 0 -0.00032251356 0 0)
(1.5260871e-09 0.003162245 0 -0.00011585972 0 0)
(7.9684606e-09 0.0010529554 0 -1.2860475e-05 0 0)
(7.8931656e-09 -0.0010529569 0 -1.2860437e-05 0 0)
(1.2348978e-09 -0.0031622459 0 -0.00011585951 0 0)
(-5.2489741e-09 -0.0052779749 0 -0.0003225131 0 0)
(-4.4204169e-09 -0.007395187 0 -0.00063300782 0 0)
(-4.2105222e-09 0.0073951893 0 -0.00063300852 0 0)
(-4.5705234e-09 0.0052779743 0 -0.00032251362 0 0)
(1.4224568e-09 0.003162243 0 -0.00011585957 0 0)
(7.7409227e-09 0.0010529548 0 -1.2860237e-05 0 0)
(7.6799902e-09 -0.0010529564 0 -1.2860226e-05 0 0)
(1.2110217e-09 -0.0031622437 0 -0.00011585942 0 0)
(-4.9152149e-09 -0.0052779742 0 -0.00032251325 0 0)
(-4.4818436e-09 -0.0073951882 0 -0.00063300809 0 0)
(-3.9180625e-09 0.0073951903 0 -0.00063300871 0 0)
(-4.6114351e-09 0.0052779737 0 -0.00032251368 0 0)
(1.3920645e-09 0.003162242 0 -0.00011585948 0 0)
(7.5164577e-09 0.0010529539 0 -1.2860012e-05 0 0)
(7.4820234e-09 -0.0010529552 0 -1.2860011e-05 0 0)
(1.2182066e-09 -0.0031622427 0 -0.00011585937 0 0)
(-4.8991976e-09 -0.0052779735 0 -0.00032251338 0 0)
(-4.1315909e-09 -0.0073951893 0 -0.00063300834 0 0)
(-4.0123146e-09 0.0073951915 0 -0.00063300891 0 0)
(-4.3691854e-09 0.005277973 0 -0.00032251375 0 0)
(1.3060789e-09 0.00316224 0 -0.00011585935 0 0)
(7.3056308e-09 0.0010529533 0 -1.2859793e-05 0 0)
(7.2719465e-09 -0.0010529547 0 -1.2859805e-05 0 0)
(1.1853556e-09 -0.0031622406 0 -0.00011585929 0 0)
(-4.5952173e-09 -0.0052779728 0 -0.00032251351 0 0)
(-4.2043898e-09 -0.0073951905 0 -0.00063300858 0 0)
(-3.7269208e-09 0.0073951924 0 -0.00063300909 0 0)
(-4.4022952e-09 0.0052779724 0 -0.00032251383 0 0)
(1.2851987e-09 0.0031622391 0 -0.00011585927 0 0)
(7.1002449e-09 0.0010529525 0 -1.2859589e-05 0 0)
(7.0896741e-09 -0.0010529537 0 -1.285961e-05 0 0)
(1.182927e-09 -0.0031622397 0 -0.00011585923 0 0)
(-4.5931283e-09 -0.0052779722 0 -0.00032251363 0 0)
(-3.8747264e-09 -0.0073951915 0 -0.00063300881 0 0)
(-3.8177784e-09 0.0073951936 0 -0.00063300929 0 0)
(-4.1609102e-09 0.0052779718 0 -0.00032251391 0 0)
(1.213046e-09 0.0031622372 0 -0.00011585916 0 0)
(6.8990839e-09 0.0010529519 0 -1.2859383e-05 0 0)
(6.8793358e-09 -0.0010529532 0 -1.2859405e-05 0 0)
(1.1440388e-09 -0.0031622377 0 -0.00011585915 0 0)
(-4.3105246e-09 -0.0052779716 0 -0.00032251374 0 0)
(-3.9540087e-09 -0.0073951926 0 -0.00063300903 0 0)
(-3.5371751e-09 0.0073951945 0 -0.00063300946 0 0)
(-4.1857807e-09 0.0052779713 0 -0.00032251398 0 0)
(1.1988344e-09 0.0031622363 0 -0.0001158591 0 0)
(6.7065397e-09 0.0010529511 0 -1.2859193e-05 0 0)
(6.7070562e-09 -0.0010529523 0 -1.2859223e-05 0 0)
(1.1346151e-09 -0.0031622369 0 -0.00011585909 0 0)
(-4.3165809e-09 -0.005277971 0 -0.00032251385 0 0)
(-3.6401206e-09 -0.0073951935 0 -0.00063300924 0 0)
(-3.6242926e-09 0.0073951955 0 -0.00063300965 0 0)
(-3.9459362e-09 0.0052779707 0 -0.00032251407 0 0)
(1.1372846e-09 0.0031622346 0 -0.000115859 0 0)
(6.5123608e-09 0.0010529506 0 -1.2858997e-05 0 0)
(6.4969537e-09 -0.0010529518 0 -1.285902e-05 0 0)
(1.0923393e-09 -0.003162235 0 -0.00011585901 0 0)
(-4.0506444e-09 -0.0052779704 0 -0.00032251396 0 0)
(-3.7234526e-09 -0.0073951946 0 -0.00063300945 0 0)
(-3.3481607e-09 0.0073951964 0 -0.00063300982 0 0)
(-3.9641932e-09 0.0052779702 0 -0.00032251416 0 0)
(1.12724e-09 0.0031622337 0 -0.00011585895 0 0)
(6.3298177e-09 0.0010529498 0 -1.2858818e-05 0 0)
(6.3326698e-09 -0.001052951 0 -1.2858849e-05 0 0)
(1.0781471e-09 -0.0031622342 0 -0.00011585896 0 0)
(-4.0616859e-09 -0.0052779699 0 -0.00032251406 0 0)
(-3.4225166e-09 -0.0073951955 0 -0.00063300964 0 0)
(-3.4321127e-09 0.0073951974 0 -0.00063301 0 0)
(-3.7274998e-09 0.0052779696 0 -0.00032251425 0 0)
(1.0736355e-09 0.0031622321 0 -0.00011585887 0 0)
(6.1415694e-09 0.0010529493 0 -1.285863e-05 0 0)
(6.1243759e-09 -0.0010529504 0 -1.2858649e-05 0 0)
(1.0345505e-09 -0.0031622325 0 -0.00011585888 0 0)
(-3.8094533e-09 -0.0052779693 0 -0.00032251416 0 0)
(-3.5084489e-09 -0.0073951965 0 -0.00063300983 0 0)
(-3.1607504e-09 0.0073951982 0 -0.00063301016 0 0)
(-3.7411638e-09 0.0052779691 0 -0.00032251434 0 0)
(1.0657645e-09 0.0031622312 0 -0.00011585882 0 0)
(5.9675815e-09 0.0010529486 0 -1.2858461e-05 0 0)
(5.9673717e-09 -0.0010529497 0 -1.2858487e-05 0 0)
(1.0173137e-09 -0.0031622317 0 -0.00011585883 0 0)
(-3.8236046e-09 -0.0052779688 0 -0.00032251426 0 0)
(-3.218525e-09 -0.0073951973 0 -0.00063301001 0 0)
(-3.2423518e-09 0.0073951992 0 -0.00063301033 0 0)
(-3.5091908e-09 0.0052779686 0 -0.00032251443 0 0)
(1.0180385e-09 0.0031622297 0 -0.00011585875 0 0)
(5.7848619e-09 0.0010529481 0 -1.285828e-05 0 0)
(5.7625206e-09 -0.0010529492 0 -1.2858291e-05 0 0)
(9.7390392e-10 -0.0031622301 0 -0.00011585875 0 0)
(-3.5830168e-09 -0.0052779683 0 -0.00032251436 0 0)
(-3.3060934e-09 -0.0073951983 0 -0.00063301019 0 0)
(-2.9761783e-09 0.0073951999 0 -0.00063301049 0 0)
(-3.5200614e-09 0.0052779681 0 -0.00032251452 0 0)
(1.0108933e-09 0.0031622289 0 -0.00011585871 0 0)
(5.6186246e-09 0.0010529474 0 -1.285812e-05 0 0)
(5.6124952e-09 -0.0010529485 0 -1.2858139e-05 0 0)
(9.5490157e-10 -0.0031622293 0 -0.00011585871 0 0)
(-3.5990923e-09 -0.0052779678 0 -0.00032251445 0 0)
(-3.0257278e-09 -0.007395199 0 -0.00063301035 0 0)
(-3.0562392e-09 0.0073952008 0 -0.00063301066 0 0)
(-3.2940053e-09 0.0052779677 0 -0.00032251462 0 0)
(9.6752335e-10 0.0031622274 0 -0.00011585865 0 0)
(5.4413353e-09 0.0010529469 0 -1.2857947e-05 0 0)
(5.4124735e-09 -0.001052948 0 -1.2857949e-05 0 0)
(9.1271151e-10 -0.0031622278 0 -0.00011585864 0 0)
(-3.3686538e-09 -0.0052779673 0 -0.00032251455 0 0)
(-3.1142874e-09 -0.0073952 0 -0.00063301053 0 0)
(-2.7956226e-09 0.0073952015 0 -0.0006330108 0 0)
(-3.3034967e-09 0.0052779672 0 -0.00032251471 0 0)
(9.6014896e-10 0.0031622267 0 -0.00011585861 0 0)
(5.2823887e-09 0.0010529463 0 -1.2857794e-05 0 0)
(5.2692546e-09 -0.0010529474 0 -1.2857805e-05 0 0)
(8.9284949e-10 -0.0031622271 0 -0.00011585859 0 0)
(-3.385921e-09 -0.0052779669 0 -0.00032251464 0 0)
(-2.8423823e-09 -0.0073952007 0 -0.00063301068 0 0)
(-2.8748669e-09 0.0073952024 0 -0.00063301097 0 0)
(-3.0842025e-09 0.0052779668 0 -0.00032251481 0 0)
(9.2007155e-10 0.0031622253 0 -0.00011585855 0 0)
(5.110598e-09 0.0010529458 0 -1.2857628e-05 0 0)
(5.0751435e-09 -0.0010529469 0 -1.2857621e-05 0 0)
(8.5253624e-10 -0.0031622257 0 -0.00011585853 0 0)
(-3.1645477e-09 -0.0052779664 0 -0.00032251473 0 0)
(-2.9315358e-09 -0.0073952015 0 -0.00063301085 0 0)
(-2.6200782e-09 0.007395203 0 -0.00063301111 0 0)
(-3.0934357e-09 0.0052779663 0 -0.0003225149 0 0)
(9.1191397e-10 0.0031622246 0 -0.00011585852 0 0)
(4.9586908e-09 0.0010529453 0 -1.2857482e-05 0 0)
(4.9386037e-09 -0.0010529464 0 -1.2857485e-05 0 0)
(8.3242673e-10 -0.003162225 0 -0.00011585849 0 0)
(-3.1826098e-09 -0.005277966 0 -0.00032251482 0 0)
(-2.6672907e-09 -0.0073952022 0 -0.00063301099 0 0)
(-2.6991256e-09 0.0073952039 0 -0.00063301126 0 0)
(-2.8814907e-09 0.0052779659 0 -0.00032251499 0 0)
(8.744257e-10 0.0031622233 0 -0.00011585847 0 0)
(4.7925617e-09 0.0010529448 0 -1.2857323e-05 0 0)
(4.7512054e-09 -0.0010529458 0 -1.2857309e-05 0 0)
(7.943671e-10 -0.0031622237 0 -0.00011585843 0 0)
(-2.9695307e-09 -0.0052779656 0 -0.00032251491 0 0)
(-2.7568427e-09 -0.007395203 0 -0.00063301115 0 0)
(-2.4503377e-09 0.0073952044 0 -0.0006330114 0 0)
(-2.8913114e-09 0.0052779655 0 -0.00032251508 0 0)
(8.6522771e-10 0.0031622227 0 -0.00011585844 0 0)
(4.6475695e-09 0.0010529444 0 -1.2857184e-05 0 0)
(4.6212354e-09 -0.0010529454 0 -1.2857179e-05 0 0)
(7.7440418e-10 -0.0031622231 0 -0.00011585839 0 0)
(-2.9882365e-09 -0.0052779652 0 -0.00032251499 0 0)
(-2.4996819e-09 -0.0073952036 0 -0.00063301128 0 0)
(-2.5296985e-09 0.0073952052 0 -0.00063301155 0 0)
(-2.6869871e-09 0.0052779651 0 -0.00032251517 0 0)
(8.2988821e-10 0.0031622215 0 -0.00011585839 0 0)
(4.4873092e-09 0.0010529439 0 -1.2857032e-05 0 0)
(4.441123e-09 -0.0010529449 0 -1.2857011e-05 0 0)
(7.3877859e-10 -0.0031622218 0 -0.00011585834 0 0)
(-2.7829092e-09 -0.0052779648 0 -0.00032251508 0 0)
(-2.5895911e-09 -0.0073952044 0 -0.00063301143 0 0)
(-2.2870013e-09 0.0073952057 0 -0.00063301167 0 0)
(-2.6979849e-09 0.0052779647 0 -0.00032251525 0 0)
(8.1959488e-10 0.0031622209 0 -0.00011585836 0 0)
(4.3491779e-09 0.0010529435 0 -1.28569e-05 0 0)
(4.3176195e-09 -0.0010529445 0 -1.2856888e-05 0 0)
(7.1920374e-10 -0.0031622213 0 -0.0001158583 0 0)
(-2.802274e-09 -0.0052779644 0 -0.00032251516 0 0)
(-2.3391011e-09 -0.0073952049 0 -0.00063301156 0 0)
(-2.3670818e-09 0.0073952065 0 -0.00063301181 0 0)
(-2.5013481e-09 0.0052779643 0 -0.00032251534 0 0)
(7.8614476e-10 0.0031622198 0 -0.00011585832 0 0)
(4.1949979e-09 0.001052943 0 -1.2856754e-05 0 0)
(4.1451816e-09 -0.001052944 0 -1.2856728e-05 0 0)
(6.8606135e-10 -0.0031622201 0 -0.00011585825 0 0)
(-2.6043116e-09 -0.005277964 0 -0.00032251524 0 0)
(-2.4294339e-09 -0.0073952057 0 -0.0006330117 0 0)
(-2.1304994e-09 0.007395207 0 -0.00063301193 0 0)
(-2.5139395e-09 0.0052779639 0 -0.00032251542 0 0)
(7.7482715e-10 0.0031622192 0 -0.00011585829 0 0)
(4.0637013e-09 0.0010529426 0 -1.2856629e-05 0 0)
(4.0280375e-09 -0.0010529436 0 -1.2856612e-05 0 0)
(6.6701403e-10 -0.0031622196 0 -0.00011585822 0 0)
(-2.6244518e-09 -0.0052779637 0 -0.00032251532 0 0)
(-2.1853111e-09 -0.0073952062 0 -0.00063301182 0 0)
(-2.2116173e-09 0.0073952077 0 -0.00063301207 0 0)
(-2.3249317e-09 0.0052779636 0 -0.00032251551 0 0)
(7.4312389e-10 0.0031622181 0 -0.00011585825 0 0)
(3.9157897e-09 0.0010529422 0 -1.285649e-05 0 0)
(3.8635173e-09 -0.0010529431 0 -1.2856459e-05 0 0)
(6.3632185e-10 -0.0031622185 0 -0.00011585817 0 0)
(-2.4335644e-09 -0.0052779633 0 -0.0003225154 0 0)
(-2.2762e-09 -0.0073952069 0 -0.00063301196 0 0)
(-1.9811153e-09 0.0073952081 0 -0.00063301218 0 0)
(-2.3394034e-09 0.0052779633 0 -0.00032251559 0 0)
(7.3092232e-10 0.0031622176 0 -0.00011585822 0 0)
(3.7913006e-09 0.0010529418 0 -1.285637e-05 0 0)
(3.7526157e-09 -0.0010529428 0 -1.2856349e-05 0 0)
(6.178775e-10 -0.003162218 0 -0.00011585815 0 0)
(-2.4546478e-09 -0.005277963 0 -0.00032251548 0 0)
(-2.0382092e-09 -0.0073952074 0 -0.00063301207 0 0)
(-2.0635176e-09 0.0073952088 0 -0.00063301231 0 0)