/*--------------------------------*- C++ -*----------------------------------*\
| =========                 |                                                 |
| \\      /  F ield         | OpenFOAM: The Open Source CFD Toolbox           |
|  \\    /   O peration     | Version:  5.x                                   |
|   \\  /    A nd           | Web:      www.OpenFOAM.org                      |
|    \\/     M anipulation  |                                                 |
\*---------------------------------------------------------------------------*/
FoamFile
{
    version     2.0;
    format      ascii;
    class       volVectorField;
    location    "8";
    object      U;
}
// * * * * * * * * * * * * * * * * * * * * * * * * * * * * * * * * * * * * * //

dimensions      [0 1 -1 0 0 0 0];

internalField   nonuniform List<vector> 
1920
(
(-2.3543803e-07 1.3945536e-07 0)
(-5.3578571e-07 6.2156661e-08 0)
(-8.3978634e-07 -2.9120969e-08 0)
(-4.0153555e-07 -8.3279835e-08 0)
(4.0221076e-07 -8.4422242e-08 0)
(8.401924e-07 -2.8085854e-08 0)
(5.3600959e-07 6.1471741e-08 0)
(2.3536649e-07 1.3970043e-07 0)
(-6.8109821e-08 2.3389441e-07 0)
(-1.1330678e-06 4.3022728e-07 0)
(-1.7938971e-06 -6.5977586e-08 0)
(-9.115936e-07 -6.2416479e-07 0)
(9.1318754e-07 -6.2197709e-07 0)
(1.7952776e-06 -6.7539136e-08 0)
(1.1333081e-06 4.3173874e-07 0)
(6.8401277e-08 2.3351873e-07 0)
(-1.3054473e-07 6.1943194e-07 0)
(-1.6754086e-06 9.9088886e-07 0)
(-2.5462042e-06 -1.4747668e-07 0)
(-1.2105114e-06 -1.4412044e-06 0)
(1.21292e-06 -1.4442013e-06 0)
(2.5476601e-06 -1.4404979e-07 0)
(1.6764798e-06 9.895375e-07 0)
(1.3033104e-07 6.2038987e-07 0)
(-1.8432762e-07 1.109385e-06 0)
(-2.1195848e-06 1.6704646e-06 0)
(-2.9736987e-06 -2.776679e-07 0)
(-1.476221e-06 -2.5022133e-06 0)
(1.4787321e-06 -2.4976319e-06 0)
(2.9758476e-06 -2.8026141e-07 0)
(2.1201722e-06 1.6740411e-06 0)
(1.8467082e-07 1.1089229e-06 0)
(-2.4770658e-07 1.7069578e-06 0)
(-2.3071172e-06 2.4365311e-06 0)
(-3.2824945e-06 -4.5847896e-07 0)
(-1.5265894e-06 -3.6852678e-06 0)
(1.529171e-06 -3.6895516e-06 0)
(3.2841379e-06 -4.527764e-07 0)
(2.3082756e-06 2.4351377e-06 0)
(2.4758644e-07 1.708744e-06 0)
(-2.4314399e-07 2.3516256e-06 0)
(-2.4150449e-06 3.2192245e-06 0)
(-3.2840418e-06 -6.4435826e-07 0)
(-1.6162515e-06 -4.9309428e-06 0)
(1.6182556e-06 -4.9248748e-06 0)
(3.2857525e-06 -6.4713587e-07 0)
(2.4156128e-06 3.2243849e-06 0)
(2.4336777e-07 2.351379e-06 0)
(-2.6033748e-07 2.9896624e-06 0)
(-2.3004561e-06 4.0007308e-06 0)
(-3.2397979e-06 -8.4412171e-07 0)
(-1.497142e-06 -6.1510864e-06 0)
(1.4985857e-06 -6.155769e-06 0)
(3.2407628e-06 -8.3719932e-07 0)
(2.301087e-06 3.9996967e-06 0)
(2.6034361e-07 2.9919949e-06 0)
(-2.2270114e-07 3.5980566e-06 0)
(-2.1702171e-06 4.7311477e-06 0)
(-2.9540934e-06 -1.0225019e-06 0)
(-1.4497334e-06 -7.3147593e-06 0)
(1.4503452e-06 -7.3083312e-06 0)
(2.9545931e-06 -1.0249977e-06 0)
(2.1704631e-06 4.7369214e-06 0)
(2.227165e-07 3.598062e-06 0)
(-2.1188816e-07 4.1436711e-06 0)
(-1.896198e-06 5.4038348e-06 0)
(-2.6865295e-06 -1.1929898e-06 0)
(-1.2453575e-06 -8.3610638e-06 0)
(1.2451601e-06 -8.3654294e-06 0)
(2.6864541e-06 -1.1860902e-06 0)
(1.8960815e-06 5.4031813e-06 0)
(2.1198649e-07 4.1460778e-06 0)
(-1.6474866e-07 4.6212743e-06 0)
(-1.6521779e-06 5.988969e-06 0)
(-2.2807919e-06 -1.32961e-06 0)
(-1.1206131e-06 -9.2889913e-06 0)
(1.1197142e-06 -9.283191e-06 0)
(2.2800214e-06 -1.3316578e-06 0)
(1.6520277e-06 5.994316e-06 0)
(1.6458981e-07 4.6214052e-06 0)
(-1.4192345e-07 5.017905e-06 0)
(-1.3436973e-06 6.4918585e-06 0)
(-1.9318173e-06 -1.4497748e-06 0)
(-9.0485108e-07 -1.0066344e-05 0)
(9.0324053e-07 -1.0069979e-05 0)
(1.9308154e-06 -1.4439357e-06 0)
(1.3429842e-06 6.4913902e-06 0)
(1.4206439e-07 5.0199606e-06 0)
(-1.0151192e-07 5.340127e-06 0)
(-1.0862723e-06 6.9009629e-06 0)
(-1.5367775e-06 -1.5367968e-06 0)
(-7.5697647e-07 -1.071136e-05 0)
(7.549716e-07 -1.0706797e-05 0)
(1.5351213e-06 -1.5384783e-06 0)
(1.0858132e-06 6.9051348e-06 0)
(1.0126805e-07 5.3402217e-06 0)
(-7.7979711e-08 5.5878858e-06 0)
(-8.2352456e-07 7.2303318e-06 0)
(-1.2108539e-06 -1.6077503e-06 0)
(-5.7713357e-07 -1.1215086e-05 0)
(5.7465516e-07 -1.1217895e-05 0)
(1.2092575e-06 -1.6035573e-06 0)
(8.2250005e-07 7.2297886e-06 0)
(7.8116903e-08 5.5893404e-06 0)
(-5.049136e-08 5.7740232e-06 0)
(-6.1254691e-07 7.4802436e-06 0)
(-9.0128762e-07 -1.6527655e-06 0)
(-4.4579747e-07 -1.1606063e-05 0)
(4.4317568e-07 -1.1602934e-05 0)
(8.9918997e-07 -1.6543018e-06 0)
(6.1189361e-07 7.4828877e-06 0)
(5.0244545e-08 5.7739501e-06 0)
(-3.2230319e-08 5.904806e-06 0)
(-4.2868562e-07 7.668227e-06 0)
(-6.5385727e-07 -1.6865453e-06 0)
(-3.2071995e-07 -1.1888763e-05 0)
(3.1781502e-07 -1.1890887e-05 0)
(6.5193506e-07 -1.684166e-06 0)
(4.2756622e-07 7.6673558e-06 0)
(3.2331029e-08 5.9055786e-06 0)
(-1.7474511e-08 5.9938622e-06 0)
(-2.8566456e-07 7.7996906e-06 0)
(-4.5079474e-07 -1.7032129e-06 0)
(-2.245629e-07 -1.2092177e-05 0)
(2.2161685e-07 -1.2090397e-05 0)
(4.4851601e-07 -1.7048916e-06 0)
(2.8487439e-07 7.8007463e-06 0)
(1.7267849e-08 5.993521e-06 0)
(-5.991888e-09 6.048667e-06 0)
(-1.7887247e-07 7.8911221e-06 0)
(-2.9270287e-07 -1.7141643e-06 0)
(-1.5159574e-07 -1.2225522e-05 0)
(1.4847073e-07 -1.2227226e-05 0)
(2.9056845e-07 -1.7135227e-06 0)
(1.7774364e-07 7.8896828e-06 0)
(6.0397233e-09 6.0487654e-06 0)
(-5.9778592e-10 6.0802578e-06 0)
(-9.7753023e-08 7.9482882e-06 0)
(-1.8164248e-07 -1.7155929e-06 0)
(-9.1652056e-08 -1.2312251e-05 0)
(8.8501216e-08 -1.2311599e-05 0)
(1.7927165e-07 -1.717714e-06 0)
(9.6839332e-08 7.9478202e-06 0)
(4.3823294e-10 6.079558e-06 0)
(5.3490185e-09 6.0944677e-06 0)
(-4.834546e-08 7.9839499e-06 0)
(-9.6378234e-08 -1.7154451e-06 0)
(-5.7422565e-08 -1.2360692e-05 0)
(5.4164573e-08 -1.2362257e-05 0)
(9.4088545e-08 -1.7163856e-06 0)
(4.7222548e-08 7.9817213e-06 0)
(-5.354336e-09 6.093918e-06 0)
(5.295571e-09 6.0986156e-06 0)
(-1.0680789e-08 8.0020944e-06 0)
(-4.8543414e-08 -1.7109813e-06 0)
(-2.5098107e-08 -1.2386784e-05 0)
(2.1844347e-08 -1.2387041e-05 0)
(4.6143569e-08 -1.7138019e-06 0)
(9.6731223e-09 8.0001936e-06 0)
(-5.4173881e-09 6.0974756e-06 0)
(7.8717001e-09 6.0961205e-06 0)
(4.2299545e-09 8.0111098e-06 0)
(-1.0583744e-08 -1.7071932e-06 0)
(-1.4548018e-08 -1.2395821e-05 0)
(1.131027e-08 -1.2397472e-05 0)
(8.2541521e-09 -1.7095518e-06 0)
(-5.3169837e-09 8.0079297e-06 0)
(-7.9174314e-09 6.0949484e-06 0)
(5.4120528e-09 6.0910008e-06 0)
(1.7458502e-08 8.0129491e-06 0)
(1.6941311e-09 -1.7020111e-06 0)
(9.147627e-10 -1.2397058e-05 0)
(-4.042847e-09 -1.2398029e-05 0)
(-3.9734739e-09 -1.7056828e-06 0)
(-1.8473842e-08 8.0097263e-06 0)
(-5.5042292e-09 6.0893734e-06 0)
(6.501749e-09 6.0847027e-06 0)
(1.5832758e-08 8.0123427e-06 0)
(1.4797023e-08 -1.6982706e-06 0)
(-4.1578291e-10 -1.2392879e-05 0)
(-2.5246143e-09 -1.2394748e-05 0)
(-1.6943385e-08 -1.7018641e-06 0)
(-1.6801248e-08 8.0081666e-06 0)
(-6.5674548e-09 6.0829556e-06 0)
(3.442623e-09 6.0789926e-06 0)
(1.8434259e-08 8.0098106e-06 0)
(1.1143012e-08 -1.694436e-06 0)
(6.8033378e-09 -1.2387881e-05 0)
(-9.474304e-09 -1.2389408e-05 0)
(-1.3068711e-08 -1.6989615e-06 0)
(-1.9327064e-08 8.0054418e-06 0)
(-3.5059676e-09 6.0768954e-06 0)
(4.2078562e-09 6.0741509e-06 0)
(1.1180595e-08 8.0076294e-06 0)
(1.4219237e-08 -1.6919816e-06 0)
(9.0155644e-10 -1.2382555e-05 0)
(-3.1958248e-09 -1.2384667e-05 0)
(-1.5917042e-08 -1.6965695e-06 0)
(-1.1918025e-08 8.0025668e-06 0)
(-4.2725102e-09 6.0719245e-06 0)
(1.349895e-09 6.0707153e-06 0)
(1.0910216e-08 8.0055986e-06 0)
(5.670602e-09 -1.6898241e-06 0)
(5.1496833e-09 -1.2378811e-05 0)
(-7.0311056e-09 -1.2380734e-05 0)
(-7.0018861e-09 -1.6950509e-06 0)
(-1.1551486e-08 8.0003544e-06 0)
(-1.3806035e-09 6.0682424e-06 0)
(2.2998541e-09 6.0684709e-06 0)
(3.1895281e-09 8.0046294e-06 0)
(6.4275652e-09 -1.6886865e-06 0)
(-1.7091256e-09 -1.2376252e-05 0)
(3.371586e-10 -1.2378556e-05 0)
(-7.4606508e-09 -1.6939585e-06 0)
(-3.6019231e-09 7.9989339e-06 0)
(-2.3477624e-09 6.0659152e-06 0)
(-1.563501e-10 6.0674354e-06 0)
(3.3413358e-09 8.0042991e-06 0)
(-2.1808624e-09 -1.6878424e-06 0)
(2.0878606e-09 -1.2375514e-05 0)
(-2.9707726e-09 -1.2377673e-05 0)
(1.5944729e-09 -1.6934998e-06 0)
(-3.6505351e-09 7.998533e-06 0)
(1.6087111e-10 6.0647416e-06 0)
(1.0900647e-09 6.0672897e-06 0)
(-3.1582672e-09 8.0048922e-06 0)
(-7.3872522e-10 -1.6876509e-06 0)
(-4.394965e-09 -1.2375953e-05 0)
(4.0640843e-09 -1.2378346e-05 0)
(4.6245074e-10 -1.6932518e-06 0)
(3.1087023e-09 7.9989077e-06 0)
(-1.1139954e-09 6.0645888e-06 0)
(-1.0248109e-09 6.0679108e-06 0)
(-1.7513245e-09 8.0060099e-06 0)
(-8.009715e-09 -1.6876377e-06 0)
(-1.9787525e-10 -1.2377731e-05 0)
(3.4130918e-10 -1.2379969e-05 0)
(8.1843061e-09 -1.6934e-06 0)
(1.7855899e-09 8.0001074e-06 0)
(1.0625771e-09 6.065177e-06 0)
(4.6058308e-10 6.0690365e-06 0)
(-6.9380692e-09 8.0077148e-06 0)
(-5.2644546e-09 -1.688008e-06 0)
(-6.0772402e-09 -1.2380255e-05 0)
(6.7234278e-09 -1.2382615e-05 0)
(5.6985455e-09 -1.6935848e-06 0)
(7.2242775e-09 8.0018022e-06 0)
(-4.613349e-10 6.0663761e-06 0)
(-1.4360381e-09 6.0705576e-06 0)
(-4.4490194e-09 8.0097058e-06 0)
(-1.1254229e-08 -1.6884457e-06 0)
(-1.3999331e-09 -1.2383576e-05 0)
(2.4273849e-09 -1.2385753e-05 0)
(1.2080731e-08 -1.6939984e-06 0)
(4.7758569e-09 8.0040236e-06 0)
(1.5003046e-09 6.0679535e-06 0)
(1.9546658e-10 6.0723e-06 0)
(-8.7227143e-09 8.0120042e-06 0)
(-7.4755031e-09 -1.6891015e-06 0)
(-6.8328839e-09 -1.2387238e-05 0)
(8.2486543e-09 -1.2389454e-05 0)
(8.4663404e-09 -1.6943523e-06 0)
(9.2678872e-09 8.0064768e-06 0)
(-1.793266e-10 6.0698359e-06 0)
(-1.5851231e-09 6.0742062e-06 0)
(-5.5560281e-09 8.0143988e-06 0)
(-1.2625815e-08 -1.689748e-06 0)
(-1.8379534e-09 -1.2391306e-05 0)
(3.4968501e-09 -1.2393313e-05 0)
(1.3914606e-08 -1.6948385e-06 0)
(6.0858323e-09 8.0092157e-06 0)
(1.6663783e-09 6.0718625e-06 0)
(1.1837188e-10 6.076171e-06 0)
(-9.3210946e-09 8.0169302e-06 0)
(-8.2398679e-09 -1.6905223e-06 0)
(-7.0292938e-09 -1.2395447e-05 0)
(8.9340772e-09 -1.2397438e-05 0)
(9.5799638e-09 -1.6952296e-06 0)
(1.0024665e-08 8.0120118e-06 0)
(-9.3906769e-11 6.0740106e-06 0)
(-1.6092883e-09 6.0781819e-06 0)
(-5.8128624e-09 8.019446e-06 0)
(-1.2948021e-08 -1.6912415e-06 0)
(-1.8883486e-09 -1.2399767e-05 0)
(3.8888337e-09 -1.2401532e-05 0)
(1.4483386e-08 -1.6957057e-06 0)
(6.4445913e-09 8.014938e-06 0)
(1.6977535e-09 6.0761774e-06 0)
(1.2084133e-10 6.0801744e-06 0)
(-9.3408905e-09 8.0220154e-06 0)
(-8.2812417e-09 -1.6920434e-06 0)
(-6.9808137e-09 -1.2404015e-05 0)
(9.0894855e-09 -1.2405734e-05 0)
(9.7608053e-09 -1.6960858e-06 0)
(1.0103253e-08 8.0178263e-06 0)
(-9.624333e-11 6.0783708e-06 0)
(-1.5855622e-09 6.0821645e-06 0)
(-5.6987249e-09 8.0245164e-06 0)
(-1.2797882e-08 -1.6927652e-06 0)
(-1.8065108e-09 -1.2408328e-05 0)
(3.8813368e-09 -1.2409819e-05 0)
(1.4382469e-08 -1.6965311e-06 0)
(6.3413869e-09 8.0207558e-06 0)
(1.673092e-09 6.0805265e-06 0)
(1.4806093e-10 6.0841075e-06 0)
(-9.1356473e-09 8.0270398e-06 0)
(-8.0408726e-09 -1.6935485e-06 0)
(-6.8724079e-09 -1.2412504e-05 0)
(8.9437532e-09 -1.2413939e-05 0)
(9.4837303e-09 -1.6968939e-06 0)
(9.8748872e-09 8.0236046e-06 0)
(-1.2956896e-10 6.0826659e-06 0)
(-1.549832e-09 6.0860343e-06 0)
(-5.4650398e-09 8.0294762e-06 0)
(-1.2492182e-08 -1.6942391e-06 0)
(-1.7199889e-09 -1.2416696e-05 0)
(3.6606263e-09 -1.2417913e-05 0)
(1.3973353e-08 -1.6973141e-06 0)
(6.049857e-09 8.0264485e-06 0)
(1.6308306e-09 6.0847477e-06 0)
(1.7736232e-10 6.0879076e-06 0)
(-8.8747979e-09 8.0319288e-06 0)
(-7.7352945e-09 -1.6949817e-06 0)
(-6.7834549e-09 -1.2420729e-05 0)
(8.6440926e-09 -1.2421894e-05 0)
(9.0161541e-09 -1.6976684e-06 0)
(9.5341947e-09 8.0291977e-06 0)
(-1.6872457e-10 6.086797e-06 0)
(-1.5154204e-09 6.0897647e-06 0)
(-5.2195921e-09 8.0342916e-06 0)
(-1.2170459e-08 -1.6956266e-06 0)
(-1.6709736e-09 -1.242476e-05 0)
(3.3405021e-09 -1.2425729e-05 0)
(1.3449216e-08 -1.6980764e-06 0)
(5.7035834e-09 8.0319198e-06 0)
(1.5869062e-09 6.0887858e-06 0)
(2.0198916e-10 6.0915702e-06 0)
(-8.62263e-09 8.0366733e-06 0)
(-7.4463616e-09 -1.6963194e-06 0)
(-6.7310711e-09 -1.2428632e-05 0)
(8.2789199e-09 -1.2429561e-05 0)
(8.4928267e-09 -1.6984332e-06 0)
(9.1708431e-09 8.0345478e-06 0)
(-2.0465389e-10 6.0907377e-06 0)
(-1.4853381e-09 6.0933634e-06 0)
(-4.9957259e-09 8.0389677e-06 0)
(-1.1875799e-08 -1.696914e-06 0)
(-1.6580272e-09 -1.2432497e-05 0)
(2.9871658e-09 -1.2433257e-05 0)
(1.2903251e-08 -1.6988397e-06 0)
(5.3594017e-09 8.0371386e-06 0)
(1.5464842e-09 6.0926328e-06 0)
(2.2165365e-10 6.0951084e-06 0)
(-8.3933658e-09 8.0412848e-06 0)
(-7.1898464e-09 -1.6975548e-06 0)
(-6.70436e-09 -1.243621e-05 0)
(7.8991391e-09 -1.2436947e-05 0)
(7.9749132e-09 -1.6992062e-06 0)
(8.8202591e-09 8.0396419e-06 0)
(-2.3532681e-10 6.0944912e-06 0)
(-1.4588369e-09 6.0968445e-06 0)
(-4.7948512e-09 8.043518e-06 0)
(-1.1608439e-08 -1.6980997e-06 0)
(-1.6637394e-09 -1.2439916e-05 0)
(2.6376329e-09 -1.2440512e-05 0)
(1.2375593e-08 -1.6996174e-06 0)
(5.0369342e-09 8.0421042e-06 0)
(1.5103121e-09 6.0962983e-06 0)
(2.3796175e-10 6.0985352e-06 0)
(-8.1820802e-09 8.0457758e-06 0)
(-6.9559806e-09 -1.6986902e-06 0)
(-6.6848274e-09 -1.2443478e-05 0)
(7.5326565e-09 -1.244407e-05 0)
(7.4863504e-09 -1.6999968e-06 0)
(8.4928102e-09 8.0444878e-06 0)
(-2.6125073e-10 6.0980702e-06 0)
(-1.4343554e-09 6.1002187e-06 0)
(-4.6082654e-09 8.047952e-06 0)
(-1.1354845e-08 -1.6991889e-06 0)
(-1.6693125e-09 -1.2447034e-05 0)
(2.3112464e-09 -1.2447514e-05 0)
(1.1880325e-08 -1.7004144e-06 0)
(4.7396687e-09 8.0468288e-06 0)
(1.4776815e-09 6.0997963e-06 0)
(2.5257945e-10 6.1018584e-06 0)
(-7.9794118e-09 8.0501525e-06 0)
(-6.7295023e-09 -1.6997329e-06 0)
(-6.6561242e-09 -1.2450456e-05 0)
(7.1933245e-09 -1.2450947e-05 0)
(7.0334894e-09 -1.7008059e-06 0)
(8.1885628e-09 8.0491003e-06 0)
(-2.8355891e-10 6.1014887e-06 0)
(-1.4105836e-09 6.1034912e-06 0)
(-4.4266066e-09 8.0522725e-06 0)
(-1.1100912e-08 -1.7001903e-06 0)
(-1.660531e-09 -1.245387e-05 0)
(2.0165612e-09 -1.2454275e-05 0)
(1.1419532e-08 -1.7012284e-06 0)
(4.4650161e-09 8.0513286e-06 0)
(1.4476231e-09 6.10314e-06 0)
(2.6669706e-10 6.1050807e-06 0)
(-7.7773343e-09 8.0544145e-06 0)
(-6.497754e-09 -1.7006928e-06 0)
(-6.6073632e-09 -1.2457158e-05 0)
(6.8863899e-09 -1.2457588e-05 0)
(6.6149142e-09 -1.7016289e-06 0)
(7.9040466e-09 8.0534959e-06 0)
(-3.0332805e-10 6.1047588e-06 0)
(-1.3866969e-09 6.1066626e-06 0)
(-4.2430194e-09 8.0564764e-06 0)
(-1.0836584e-08 -1.7011142e-06 0)
(-1.6290666e-09 -1.2460437e-05 0)
(1.7555619e-09 -1.2460802e-05 0)
(1.0990199e-08 -1.7020531e-06 0)
(4.2086848e-09 8.0556197e-06 0)
(1.4193012e-09 6.1063404e-06 0)
(2.810059e-10 6.1082012e-06 0)
(-7.5706807e-09 8.0585569e-06 0)
(-6.2528307e-09 -1.7015803e-06 0)
(-6.5332137e-09 -1.2463596e-05 0)
(6.6119339e-09 -1.2463998e-05 0)
(6.2261497e-09 -1.7024582e-06 0)
(7.6350948e-09 8.0576899e-06 0)
(-3.2140261e-10 6.1078901e-06 0)
(-1.3622927e-09 6.1097307e-06 0)
(-4.0535752e-09 8.0605571e-06 0)
(-1.0556496e-08 -1.7019709e-06 0)
(-1.5717032e-09 -1.2466745e-05 0)
(1.5263844e-09 -1.2467099e-05 0)
(1.0587508e-08 -1.7028798e-06 0)
(3.9664187e-09 8.0597163e-06 0)
(1.3920957e-09 6.1094057e-06 0)
(2.9582508e-10 6.1112167e-06 0)
(-7.3569602e-09 8.062572e-06 0)
(-5.9912261e-09 -1.7024054e-06 0)
(-6.4327207e-09 -1.2469779e-05 0)
(6.3671382e-09 -1.2470176e-05 0)
(5.8618924e-09 -1.7032848e-06 0)
(7.3779254e-09 8.0616956e-06 0)
(-3.3839416e-10 6.1108898e-06 0)
(-1.3372577e-09 6.1126919e-06 0)
(-3.8567241e-09 8.0645064e-06 0)
(-1.0259121e-08 -1.7027699e-06 0)
(-1.4889102e-09 -1.24728e-05 0)
(1.3251392e-09 -1.2473163e-05 0)
(1.02064e-08 -1.7036996e-06 0)
(3.7346067e-09 8.0636303e-06 0)
(1.3655833e-09 6.1123424e-06 0)
(3.112364e-10 6.1141233e-06 0)
(-7.1356718e-09 8.0664513e-06 0)
(-5.7126981e-09 -1.7031773e-06 0)
(-6.3078614e-09 -1.2475711e-05 0)
(6.1478043e-09 -1.2476122e-05 0)
(5.517066e-09 -1.7040999e-06 0)
(7.1294878e-09 8.0655234e-06 0)
(-3.5472482e-10 6.1137633e-06 0)
(-1.3116518e-09 6.1155423e-06 0)
(-3.6525586e-09 8.0683157e-06 0)
(-9.9455704e-09 -1.7035197e-06 0)
(-1.383443e-09 -1.2478606e-05 0)
(1.1471346e-09 -1.2478993e-05 0)
(9.8423099e-09 -1.7045041e-06 0)
(3.5104384e-09 8.0673713e-06 0)
(1.3394962e-09 6.1151548e-06 0)
(3.2718736e-10 6.1169172e-06 0)
(-6.9076037e-09 8.0701869e-06 0)
(-5.419102e-09 -1.7039036e-06 0)
(-6.1622798e-09 -1.2481396e-05 0)
(5.9493493e-09 -1.2481831e-05 0)
(5.1873059e-09 -1.7048957e-06 0)
(6.8875172e-09 8.069182e-06 0)
(-3.7067196e-10 6.1165145e-06 0)
(-1.2856248e-09 6.1182783e-06 0)
(-3.4421751e-09 8.0719779e-06 0)
(-9.6185337e-09 -1.7042273e-06 0)
(-1.2592269e-09 -1.2484167e-05 0)
(9.8766179e-10 -1.2484586e-05 0)
(9.4914856e-09 -1.705286e-06 0)
(3.2918836e-09 8.0709467e-06 0)
(1.313684e-09 6.1178462e-06 0)
(3.4355874e-10 6.1195953e-06 0)
(-6.6742788e-09 8.073772e-06 0)
(-5.113452e-09 -1.7045907e-06 0)
(-6.0003391e-09 -1.2486837e-05 0)
(5.7674207e-09 -1.2487302e-05 0)
(4.8691449e-09 -1.7056656e-06 0)
(6.650474e-09 8.0726779e-06 0)
(-3.864046e-10 6.119146e-06 0)
(-1.2593639e-09 6.1208972e-06 0)
(-3.2272012e-09 8.0754869e-06 0)
(-9.2814781e-09 -1.7048983e-06 0)
(-1.1205701e-09 -1.2489484e-05 0)
(8.424562e-10 -1.2489938e-05 0)
(9.1510797e-09 -1.7060395e-06 0)
(3.077602e-09 8.0743623e-06 0)
(1.2880827e-09 6.1204192e-06 0)
(3.6020543e-10 6.1221553e-06 0)
(-6.4375629e-09 8.0772018e-06 0)
(-4.7992532e-09 -1.7052435e-06 0)
(-5.8264876e-09 -1.2492035e-05 0)
(5.5982299e-09 -1.2492532e-05 0)
(4.5600307e-09 -1.7064047e-06 0)
(6.4174392e-09 8.0760163e-06 0)
(-4.0201183e-10 6.1216602e-06 0)
(-1.2330636e-09 6.1233971e-06 0)
(-3.0094771e-09 8.0788386e-06 0)
(-8.9381043e-09 -1.7055368e-06 0)
(-9.7166573e-10 -1.2494561e-05 0)
(7.0792375e-10 -1.2495049e-05 0)
(8.8191123e-09 -1.7067604e-06 0)
(2.8668284e-09 8.0776227e-06 0)
(1.2626894e-09 6.1228756e-06 0)
(3.7697904e-10 6.1245958e-06 0)
(-6.1994094e-09 8.0804728e-06 0)
(-4.4800676e-09 -1.7058657e-06 0)
(-5.6448791e-09 -1.2496993e-05 0)
(5.4386902e-09 -1.2497521e-05 0)
(4.2582472e-09 -1.7071092e-06 0)
(6.1879945e-09 8.0792014e-06 0)
(-4.1752472e-10 6.1240587e-06 0)
(-1.2069087e-09 6.1257774e-06 0)
(-2.7908533e-09 8.0820306e-06 0)
(-8.5920064e-09 -1.7061462e-06 0)
(-8.1631187e-10 -1.2499398e-05 0)
(5.8120756e-10 -1.2499919e-05 0)
(8.4943631e-09 -1.7074456e-06 0)
(2.6592512e-09 8.0807317e-06 0)
(1.2375439e-09 6.1252172e-06 0)
(3.9374001e-10 6.1269166e-06 0)
(-5.961703e-09 8.0835836e-06 0)
(-4.1592539e-09 -1.7064601e-06 0)
(-5.4591764e-09 -1.2501714e-05 0)
(5.2864283e-09 -1.2502269e-05 0)
(3.962786e-09 -1.7077769e-06 0)
(5.9621033e-09 8.0822365e-06 0)
(-4.3293438e-10 6.1263433e-06 0)
(-1.1810666e-09 6.1280382e-06 0)
(-2.5730719e-09 8.0850622e-06 0)
(-8.2464787e-09 -1.7067288e-06 0)
(-6.5778389e-10 -1.2503999e-05 0)
(4.6015554e-10 -1.2504549e-05 0)
(8.1762305e-09 -1.7080933e-06 0)
(2.4548963e-09 8.0836925e-06 0)
(1.212712e-09 6.1274457e-06 0)
(4.1036296e-10 6.1291183e-06 0)
(-5.726171e-09 8.0865342e-06 0)
(-3.8398282e-09 -1.7070285e-06 0)
(-5.2724781e-09 -1.2506199e-05 0)
(5.1397194e-09 -1.2506778e-05 0)
(3.673199e-09 -1.7084063e-06 0)
(5.74e-09 8.0851249e-06 0)
(-4.4820587e-10 6.1285157e-06 0)
(-1.1556838e-09 6.1301805e-06 0)
(-2.3577017e-09 8.0879342e-06 0)
(-7.9044205e-09 -1.7072861e-06 0)
(-4.9880238e-10 -1.2508368e-05 0)
(3.4323397e-10 -1.250894e-05 0)
(7.8645833e-09 -1.7087026e-06 0)
(2.254023e-09 8.0865082e-06 0)
(1.1882737e-09 6.1295629e-06 0)
(4.2673891e-10 6.1312023e-06 0)
(-5.4943385e-09 8.089326e-06 0)
(-3.524403e-09 -1.7075724e-06 0)
(-5.087319e-09 -1.2510455e-05 0)
(4.9973882e-09 -1.2511051e-05 0)
(3.3894523e-09 -1.7089972e-06 0)
(5.5220938e-09 8.0878696e-06 0)
(-4.6328918e-10 6.1305779e-06 0)
(-1.1308853e-09 6.1322061e-06 0)
(-2.1461083e-09 8.0906485e-06 0)
(-7.5683024e-09 -1.7078194e-06 0)
(-3.4155688e-10 -1.2512508e-05 0)
(2.2941912e-10 -1.2513097e-05 0)
(7.5596217e-09 -1.7092736e-06 0)
(2.0570347e-09 8.0891818e-06 0)
(1.1643141e-09 6.1315709e-06 0)
(4.4277545e-10 6.1331709e-06 0)
(-5.2675106e-09 8.0919617e-06 0)
(-3.215173e-09 -1.7080926e-06 0)
(-4.905711e-09 -1.2514484e-05 0)
(4.8586978e-09 -1.2515091e-05 0)
(3.1117945e-09 -1.7095498e-06 0)
(5.3088889e-09 8.0904736e-06 0)
(-4.7812758e-10 6.132532e-06 0)
(-1.1067747e-09 6.1341176e-06 0)
(-1.939445e-09 8.0932083e-06 0)
(-7.2401685e-09 -1.7083293e-06 0)
(-1.877573e-10 -1.2516425e-05 0)
(1.1808719e-10 -1.2517025e-05 0)
(7.2617561e-09 -1.7098067e-06 0)
(1.8644077e-09 8.0917164e-06 0)
(1.1409162e-09 6.1334719e-06 0)
(4.583964e-10 6.1350267e-06 0)
(-5.0467715e-09 8.0944448e-06 0)
(-2.9139297e-09 -1.7085899e-06 0)
(-4.7292026e-09 -1.2518292e-05 0)
(4.7232445e-09 -1.2518905e-05 0)
(2.8406465e-09 -1.7100649e-06 0)
(5.100922e-09 8.0929401e-06 0)
(-4.9266369e-10 6.1343803e-06 0)
(-1.0834356e-09 6.135918e-06 0)
(-1.7386572e-09 8.0956177e-06 0)
(-6.9216604e-09 -1.7088164e-06 0)
(-3.8696082e-11 -1.2520123e-05 0)
(8.9137068e-12 -1.2520728e-05 0)
(6.9715086e-09 -1.7103031e-06 0)
(1.6766354e-09 8.0941152e-06 0)
(1.1181561e-09 6.1352685e-06 0)
(4.735406e-10 6.1367731e-06 0)
(-4.8329932e-09 8.0967799e-06 0)
(-2.6220891e-09 -1.7090646e-06 0)
(-4.5589432e-09 -1.2521885e-05 0)
(4.5908652e-09 -1.2522499e-05 0)
(2.5765118e-09 -1.7105439e-06 0)
(4.8987147e-09 8.0952726e-06 0)
(-5.0684375e-10 6.1361258e-06 0)
(-1.060933e-09 6.1376108e-06 0)
(-1.5444928e-09 8.0978814e-06 0)
(-6.6140496e-09 -1.7092811e-06 0)
(1.0468861e-10 -1.252361e-05 0)
(-9.8212553e-11 -1.2524215e-05 0)
(6.689436e-09 -1.7107641e-06 0)
(1.494188e-09 8.096382e-06 0)
(1.0961004e-09 6.1369636e-06 0)
(4.8816075e-10 6.1384138e-06 0)
(-4.6268492e-09 8.0989717e-06 0)
(-2.340727e-09 -1.7095172e-06 0)
(-4.3957457e-09 -1.2525269e-05 0)
(4.4615604e-09 -1.2525879e-05 0)
(2.3199106e-09 -1.7109881e-06 0)
(4.7027411e-09 8.0974748e-06 0)
(-5.2062022e-10 6.1377712e-06 0)
(-1.0393149e-09 6.1391997e-06 0)
(-1.3575175e-09 8.1000046e-06 0)
(-6.3182759e-09 -1.7097237e-06 0)
(2.4175409e-10 -1.2526892e-05 0)
(-2.0325936e-10 -1.2527492e-05 0)
(6.4160737e-09 -1.7111913e-06 0)
(1.3174846e-09 8.0985205e-06 0)
(1.0748042e-09 6.1385602e-06 0)
(5.0222226e-10 6.1399527e-06 0)
(-4.4288317e-09 8.101026e-06 0)
(-2.0706164e-09 -1.7099479e-06 0)
(-4.2401434e-09 -1.2528452e-05 0)
(4.3354334e-09 -1.2529053e-05 0)
(2.0713306e-09 -1.7113993e-06 0)
(4.5134059e-09 8.0995507e-06 0)
(-5.3395334e-10 6.1393199e-06 0)
(-1.0186139e-09 6.140689e-06 0)
(-1.1781319e-09 8.1019929e-06 0)
(-6.0349854e-09 -1.7101445e-06 0)
(3.721006e-10 -1.2529977e-05 0)
(-3.0610564e-10 -1.2530567e-05 0)
(6.1518968e-09 -1.7115866e-06 0)
(1.1468757e-09 8.1005347e-06 0)
(1.0543105e-09 6.1400617e-06 0)
(5.1570201e-10 6.1413939e-06 0)
(-4.2392699e-09 8.1029483e-06 0)
(-1.8122646e-09 -1.710357e-06 0)
(-4.0924402e-09 -1.2531441e-05 0)
(4.2126437e-09 -1.253203e-05 0)
(1.8311945e-09 -1.7117795e-06 0)
(4.3310321e-09 8.1015043e-06 0)
(-5.4681186e-10 6.1407751e-06 0)
(-9.9884876e-10 6.1420827e-06 0)
(-1.0065888e-09 8.1038523e-06 0)
(-5.7645686e-09 -1.7105439e-06 0)
(4.955258e-10 -1.2532871e-05 0)
(-4.0658322e-10 -1.2533448e-05 0)
(5.8972951e-09 -1.7119517e-06 0)
(9.8263376e-10 8.1024289e-06 0)
(1.0346503e-09 6.1414716e-06 0)
(5.2858698e-10 6.1427418e-06 0)
(-4.0583487e-09 8.1047448e-06 0)
(-1.5659492e-09 -1.7107448e-06 0)
(-3.9527544e-09 -1.2534244e-05 0)
(4.0933724e-09 -1.2534817e-05 0)
(1.5998405e-09 -1.7121303e-06 0)
(4.155856e-09 8.1033401e-06 0)
(-5.5917324e-10 6.1421406e-06 0)
(-9.80026e-10 6.1433853e-06 0)
(-8.4301197e-10 8.1055888e-06 0)
(-5.5071961e-09 -1.7109221e-06 0)
(6.1198541e-10 -1.2535582e-05 0)
(-5.0450708e-10 -1.2536143e-05 0)
(5.6525592e-09 -1.7122885e-06 0)
(8.2494995e-10 8.1042075e-06 0)
(1.0158431e-09 6.1427934e-06 0)
(5.4087319e-10 6.1440007e-06 0)
(-3.8861269e-09 8.1064214e-06 0)
(-1.3317518e-09 -1.7111118e-06 0)
(-3.8210557e-09 -1.2536868e-05 0)
(3.9777978e-09 -1.2537422e-05 0)
(1.377511e-09 -1.7124537e-06 0)
(3.9880263e-09 8.1050625e-06 0)
(-5.7102307e-10 6.1434198e-06 0)
(-9.6214172e-10 6.1446012e-06 0)
(-6.8741255e-10 8.1072085e-06 0)
(-5.262852e-09 -1.7112796e-06 0)
(7.2156003e-10 -1.2538119e-05 0)
(-5.9969711e-10 -1.2538662e-05 0)
(5.4178752e-09 -1.7125989e-06 0)
(6.7393476e-10 8.1058751e-06 0)
(9.9789769e-10 6.1440309e-06 0)
(5.5256432e-10 6.1451751e-06 0)
(-3.7225559e-09 8.1079842e-06 0)
(-1.1095887e-09 -1.7114584e-06 0)
(-3.6971973e-09 -1.2539321e-05 0)
(3.8660782e-09 -1.2539855e-05 0)
(1.1643498e-09 -1.7127516e-06 0)
(3.8276084e-09 8.1066761e-06 0)
(-5.8235478e-10 6.1446165e-06 0)
(-9.4518281e-10 6.1457346e-06 0)
(-5.397064e-10 8.1087173e-06 0)
(-5.0313648e-09 -1.7116169e-06 0)
(8.2442714e-10 -1.254049e-05 0)
(-6.9199319e-10 -1.2541012e-05 0)
(5.1933253e-09 -1.7128848e-06 0)
(5.2962243e-10 8.1074362e-06 0)
(9.8081329e-10 6.1451877e-06 0)
(5.636708e-10 6.1462691e-06 0)
(-3.5674953e-09 8.1094392e-06 0)
(-8.9923952e-10 -1.7117849e-06 0)
(-3.5809423e-09 -1.2541612e-05 0)
(3.7583415e-09 -1.2542124e-05 0)
(9.6040392e-10 -1.7130257e-06 0)
(3.67459e-09 8.1081855e-06 0)
(-5.931688e-10 6.1457344e-06 0)
(-9.2912868e-10 6.1467898e-06 0)
(-3.997293e-10 8.1101212e-06 0)
(-4.8124352e-09 -1.7119343e-06 0)
(9.2083731e-10 -1.2542702e-05 0)
(-7.8126437e-10 -1.2543202e-05 0)
(4.9788922e-09 -1.7131477e-06 0)
(3.9197682e-10 8.1088955e-06 0)
(9.6458077e-10 6.1462675e-06 0)
(5.7420856e-10 6.1472871e-06 0)
(-3.4207298e-09 8.1107923e-06 0)
(-7.0037291e-10 -1.712092e-06 0)
(-3.4719873e-09 -1.2543748e-05 0)
(3.6546784e-09 -1.2544237e-05 0)
(7.6562866e-10 -1.7132778e-06 0)
(3.5288886e-09 8.1095954e-06 0)
(-6.0347166e-10 6.1467772e-06 0)
(-9.1395246e-10 6.1477711e-06 0)
(-2.6725122e-10 8.111426e-06 0)
(-4.6056614e-09 -1.7122324e-06 0)
(1.0110944e-09 -1.2544762e-05 0)
(-8.6741454e-10 -1.254524e-05 0)
(4.7744669e-09 -1.7133895e-06 0)
(2.6089883e-10 8.1102575e-06 0)
(9.4918372e-10 6.1472741e-06 0)
(5.8419814e-10 6.148233e-06 0)
(-3.2819824e-09 8.112049e-06 0)
(-5.1256921e-10 -1.7123801e-06 0)
(-3.3699803e-09 -1.2545737e-05 0)
(3.5551399e-09 -1.2546202e-05 0)
(5.7989567e-10 -1.7135094e-06 0)
(3.3903596e-09 8.1109103e-06 0)
(-6.1327523e-10 6.1477486e-06 0)
(-8.9962221e-10 6.1486824e-06 0)
(-1.4198956e-10 8.1126371e-06 0)
(-4.4105612e-09 -1.7125119e-06 0)
(1.0955396e-09 -1.254668e-05 0)
(-9.5038464e-10 -1.2547134e-05 0)
(4.5798582e-09 -1.7136116e-06 0)
(1.3623387e-10 8.1115269e-06 0)
(9.3459964e-10 6.1482109e-06 0)
(5.9366377e-10 6.149111e-06 0)
(-3.1509282e-09 8.1132147e-06 0)
(-3.3534068e-10 -1.7126498e-06 0)
(-3.2745368e-09 -1.2547585e-05 0)
(3.459737e-09 -1.2548027e-05 0)
(4.0300158e-10 -1.7137221e-06 0)
(3.2588053e-09 8.1121347e-06 0)
(-6.2259595e-10 6.148652e-06 0)
(-8.8610215e-10 6.1495275e-06 0)
(-2.3620518e-11 8.1137599e-06 0)
(-4.2265916e-09 -1.7127732e-06 0)
(1.1745378e-09 -1.2548461e-05 0)
(-1.0301531e-09 -1.2548892e-05 0)
(4.3948024e-09 -1.7138154e-06 0)
(1.7780164e-11 8.112708e-06 0)
(9.2080103e-10 6.1490816e-06 0)
(6.0263258e-10 6.1499247e-06 0)
(-3.0272051e-09 8.1142948e-06 0)
(-1.6814888e-10 -1.7129017e-06 0)
(-3.1852524e-09 -1.2549302e-05 0)
(3.3684417e-09 -1.2549719e-05 0)
(2.3467804e-10 -1.7139172e-06 0)
(3.1339829e-09 8.113273e-06 0)
(-6.3145396e-10 6.1494909e-06 0)
(-8.7335349e-10 6.1503103e-06 0)
(8.8210594e-11 8.1147994e-06 0)
(-4.0531657e-09 -1.7130171e-06 0)
(1.2484669e-09 -1.2550113e-05 0)
(-1.1067343e-09 -1.2550522e-05 0)
(4.2189742e-09 -1.7140024e-06 0)
(-9.4703346e-11 8.1138051e-06 0)
(9.0775626e-10 6.1498894e-06 0)
(6.1113381e-10 6.1506777e-06 0)
(-2.9104242e-09 8.115294e-06 0)
(-1.041988e-11 -1.7131365e-06 0)
(-3.1017133e-09 -1.2550893e-05 0)
(3.28119e-09 -1.2551287e-05 0)
(7.4601531e-11 -1.714096e-06 0)
(3.015613e-09 8.1143295e-06 0)
(-6.3987242e-10 6.1502686e-06 0)
(-8.613355e-10 6.151034e-06 0)
(1.9388031e-10 8.1157604e-06 0)
(-3.8896672e-09 -1.713244e-06 0)
(1.3177095e-09 -1.2551644e-05 0)
(-1.1801761e-09 -1.2552029e-05 0)
(4.0519975e-09 -1.7141737e-06 0)
(-2.0149009e-10 8.1148224e-06 0)
(8.9543075e-10 6.1506376e-06 0)
(6.1919828e-10 6.1513733e-06 0)
(-2.8001785e-09 8.1162169e-06 0)
(1.3844303e-10 -1.7133548e-06 0)
(-3.0235044e-09 -1.2552364e-05 0)
(3.1978859e-09 -1.2552736e-05 0)
(-7.7597095e-11 -1.7142597e-06 0)
(2.9033872e-09 8.1153081e-06 0)
(-6.478769e-10 6.1509882e-06 0)
(-8.5000613e-10 6.1517021e-06 0)
(2.9377953e-10 8.1166473e-06 0)
(-3.7354622e-09 -1.7134548e-06 0)
(1.3826455e-09 -1.2553058e-05 0)
(-1.2505566e-09 -1.2553421e-05 0)
(3.8934542e-09 -1.7143305e-06 0)
(-3.0287838e-10 8.1157639e-06 0)
(8.8378758e-10 6.1513293e-06 0)
(6.2685779e-10 6.1520149e-06 0)
(-2.6960503e-09 8.1170679e-06 0)
(2.7904855e-10 -1.7135572e-06 0)
(-2.9502155e-09 -1.2553723e-05 0)
(3.1184041e-09 -1.2554073e-05 0)
(-2.2232339e-10 -1.7144094e-06 0)
(2.7969748e-09 8.1162128e-06 0)
(-6.5549473e-10 6.1516528e-06 0)
(-8.3932266e-10 6.1523175e-06 0)
(3.8830681e-10 8.1174642e-06 0)
(-3.5899103e-09 -1.7136499e-06 0)
(1.443648e-09 -1.2554362e-05 0)
(-1.3179807e-09 -1.2554705e-05 0)
(3.7428947e-09 -1.7144738e-06 0)
(-3.9918544e-10 8.1166332e-06 0)
(8.7278829e-10 6.1519673e-06 0)
(6.341447e-10 6.1526052e-06 0)
(-2.5976171e-09 8.1178509e-06 0)
(4.1200859e-10 -1.7137444e-06 0)
(-2.8814462e-09 -1.2554975e-05 0)
(3.0425954e-09 -1.2555304e-05 0)
(-3.6001066e-10 -1.7145461e-06 0)
(2.6960295e-09 8.1170472e-06 0)
(-6.6275436e-10 6.1522651e-06 0)
(-8.2924225e-10 6.1528831e-06 0)
(4.7786306e-10 8.1182151e-06 0)
(-3.4523721e-09 -1.7138301e-06 0)
(1.5010785e-09 -1.2555562e-05 0)
(-1.3825761e-09 -1.2555885e-05 0)
(3.5998459e-09 -1.7146044e-06 0)
(-4.9074147e-10 8.1174341e-06 0)
(8.6239353e-10 6.1525544e-06 0)
(6.4109148e-10 6.153147e-06 0)
(-2.5044573e-09 8.1185697e-06 0)
(5.3793084e-10 -1.7139168e-06 0)
(-2.81681e-09 -1.2556125e-05 0)
(2.9702903e-09 -1.2556434e-05 0)
(-4.911123e-10 -1.7146705e-06 0)
(2.6001947e-09 8.1178148e-06 0)
(-6.6968513e-10 6.1528278e-06 0)
(-8.1972249e-10 6.1534015e-06 0)
(5.6284693e-10 8.1189035e-06 0)
(-3.3222163e-09 -1.7139958e-06 0)
(1.5552848e-09 -1.2556664e-05 0)
(-1.4444892e-09 -1.2556967e-05 0)
(3.4638189e-09 -1.7147233e-06 0)
(-5.7788488e-10 8.1181697e-06 0)
(8.5256355e-10 6.1530931e-06 0)
(6.4773043e-10 6.1536429e-06 0)
(-2.4161544e-09 8.1192277e-06 0)
(6.5741293e-10 -1.7140752e-06 0)
(-2.7559358e-09 -1.2557179e-05 0)
(2.9013035e-09 -1.2557469e-05 0)
(-6.1609441e-10 -1.7147836e-06 0)
(2.5091088e-09 8.1185187e-06 0)
(-6.7631676e-10 6.1533433e-06 0)