# Probe 0 (0 1 0)
#         Probe               0
#          Time
           0.05               (3.4068641e-10 0.0056064909 0)
            0.1               (-3.2897691e-10 0.010675003 0)
           0.15               (-3.7491715e-10 0.014699852 0)
            0.2               (-1.4129284e-10 0.017285821 0)
           0.25               (-8.2043988e-11 0.018179693 0)
            0.3               (-3.3499059e-11 0.017293961 0)
           0.35               (1.2629075e-10 0.014715435 0)
            0.4               (-2.9089714e-11 0.010695862 0)
           0.45               (7.95809e-10 0.0056294176 0)
            0.5               (-4.0379376e-11 1.25e-05 0)
           0.55               (1.2739495e-09 -0.0056052623 0)
            0.6               (9.8267912e-11 -0.010675069 0)
           0.65               (4.7684927e-10 -0.014699926 0)
            0.7               (9.3426775e-11 -0.017285895 0)
           0.75               (1.0428878e-10 -0.018179767 0)
            0.8               (2.2916031e-11 -0.017294034 0)
           0.85               (-1.2459304e-10 -0.014715508 0)
            0.9               (-4.6055591e-11 -0.010695979 0)
           0.95               (-5.2239869e-10 -0.0056293443 0)
              1               (3.4168091e-10 -1.2535309e-05 0)
           1.05               (-1.3264671e-09 0.0056052062 0)
            1.1               (-7.6980218e-11 0.010675005 0)
           1.15               (-4.8675471e-10 0.014699859 0)
            1.2               (-8.9369678e-11 0.017285828 0)
           1.25               (-1.0666923e-10 0.0181797 0)
            1.3               (-2.2036493e-11 0.017293968 0)
           1.35               (1.2194392e-10 0.014715442 0)
            1.4               (-1.0636321e-11 0.010695882 0)
           1.45               (8.0290006e-10 0.0056294208 0)
            1.5               (-6.0593993e-11 1.2500769e-05 0)
           1.55               (1.267694e-09 -0.0056052582 0)
            1.6               (1.0131734e-10 -0.010675064 0)
           1.65               (4.7550377e-10 -0.01469992 0)
            1.7               (9.4094231e-11 -0.017285889 0)
           1.75               (1.0400101e-10 -0.018179761 0)
            1.8               (2.3040125e-11 -0.017294028 0)
           1.85               (-1.2429133e-10 -0.014715502 0)
            1.9               (-3.5202963e-11 -0.010695968 0)
           1.95               (-6.6505619e-10 -0.0056293816 0)
              2               (2.5825795e-10 -1.2536372e-05 0)
           2.05               (-1.3049418e-09 0.0056052096 0)
            2.1               (-8.6128618e-11 0.01067501 0)
           2.15               (-4.8263206e-10 0.014699865 0)
            2.2               (-9.1215189e-11 0.017285834 0)
           2.25               (-1.0574739e-10 0.018179706 0)
            2.3               (-2.2459657e-11 0.017293973 0)
           2.35               (1.2253939e-10 0.014715448 0)
            2.4               (-5.0260429e-13 0.010695894 0)
           2.45               (8.0700446e-10 0.0056294245 0)
            2.5               (-7.2342918e-11 1.2502252e-05 0)
           2.55               (1.2630028e-09 -0.0056052544 0)
            2.6               (1.0361396e-10 -0.010675059 0)
           2.65               (4.745034e-10 -0.014699915 0)
            2.7               (9.4599964e-11 -0.017285883 0)
           2.75               (1.0379273e-10 -0.018179756 0)
            2.8               (2.3144437e-11 -0.017294022 0)
           2.85               (-1.2408766e-10 -0.014715497 0)
            2.9               (-2.8051566e-11 -0.010695959 0)
           2.95               (-6.63035e-10 -0.0056293771 0)
              3               (2.5187367e-10 -1.2535426e-05 0)
           3.05               (-1.311062e-09 0.005605213 0)
            3.1               (-8.3150166e-11 0.010675014 0)
           3.15               (-4.8393431e-10 0.014699869 0)
            3.2               (-9.0576417e-11 0.017285838 0)
           3.25               (-1.0602661e-10 0.018179711 0)
            3.3               (-2.2324639e-11 0.017293978 0)
           3.35               (1.2272007e-10 0.014715452 0)
            3.4               (5.6991304e-12 0.010695903 0)
           3.45               (8.0919034e-10 0.0056294279 0)
            3.5               (-7.9206557e-11 1.2504123e-05 0)
           3.55               (1.259714e-09 -0.005605251 0)
            3.6               (1.0522179e-10 -0.010675055 0)
           3.65               (4.7380301e-10 -0.01469991 0)
            3.7               (9.4951032e-11 -0.017285879 0)
           3.75               (1.0364798e-10 -0.018179751 0)
            3.8               (2.3218166e-11 -0.017294018 0)
           3.85               (-1.2395701e-10 -0.014715492 0)
            3.9               (-2.346283e-11 -0.010695952 0)
           3.95               (-6.6173088e-10 -0.0056293733 0)
              4               (2.4775037e-10 -1.2533762e-05 0)
           4.05               (-1.3146636e-09 0.0056052161 0)
            4.1               (-8.1398508e-11 0.010675018 0)
           4.15               (-4.8469965e-10 0.014699873 0)
            4.2               (-9.019862e-11 0.017285842 0)
           4.25               (-1.0619044e-10 0.018179715 0)
            4.3               (-2.2244901e-11 0.017293982 0)
           4.35               (1.2283023e-10 0.014715456 0)
            4.4               (9.5799226e-12 0.010695909 0)
           4.45               (6.5734843e-10 0.0056293392 0)
            4.5               (-2.3483055e-10 1.2505605e-05 0)
           4.55               (1.3242042e-09 -0.005605248 0)
            4.6               (7.657859e-11 -0.010675051 0)
           4.65               (4.8662214e-10 -0.014699907 0)
            4.7               (8.9054873e-11 -0.017285876 0)
           4.75               (1.0650394e-10 -0.018179748 0)
            4.8               (2.1914984e-11 -0.017294015 0)
           4.85               (-1.2325352e-10 -0.014715489 0)
            4.9               (-2.081253e-11 -0.010695947 0)
           4.95               (-6.607596e-10 -0.0056293702 0)
              5               (2.4507936e-10 -1.2531888e-05 0)
           5.05               (-1.3167856e-09 0.0056052189 0)
            5.1               (-8.0344374e-11 0.010675021 0)
           5.15               (-4.8513944e-10 0.014699876 0)
            5.2               (-8.9959756e-11 0.017285845 0)
           5.25               (-1.0627327e-10 0.018179718 0)
            5.3               (-2.2182606e-11 0.017293985 0)
           5.35               (1.2291235e-10 0.014715459 0)
            5.4               (1.1984625e-11 0.010695913 0)
           5.45               (6.5809091e-10 0.005629342 0)
            5.5               (-2.3705545e-10 1.250755e-05 0)
           5.55               (1.3226928e-09 -0.0056052455 0)
            5.6               (7.7332728e-11 -0.010675048 0)
           5.65               (4.8631368e-10 -0.014699904 0)
            5.7               (8.9230638e-11 -0.017285873 0)
           5.75               (1.0645175e-10 -0.018179745 0)
            5.8               (2.1962633e-11 -0.017294012 0)
           5.85               (-1.2318962e-10 -0.014715486 0)
            5.9               (-1.8975818e-11 -0.010695944 0)
           5.95               (-6.6021889e-10 -0.0056293675 0)
              6               (2.434299e-10 -1.2530056e-05 0)
           6.05               (-1.3180866e-09 0.0056052212 0)
            6.1               (-7.9694071e-11 0.010675024 0)
           6.15               (-4.8540568e-10 0.014699879 0)
            6.2               (-8.9810128e-11 0.017285848 0)
           6.25               (-1.0632063e-10 0.01817972 0)
            6.3               (-2.2141179e-11 0.017293988 0)
           6.35               (1.2296571e-10 0.014715462 0)
            6.4               (1.3472895e-11 0.010695917 0)
           6.45               (6.5854771e-10 0.0056293444 0)
            6.5               (-2.3841815e-10 1.2509343e-05 0)
           6.55               (1.3217382e-09 -0.0056052433 0)
            6.6               (7.7813289e-11 -0.010675046 0)
           6.65               (4.8612131e-10 -0.014699902 0)
            6.7               (8.9342092e-11 -0.01728587 0)
           6.75               (1.0641878e-10 -0.018179743 0)
            6.8               (2.1996236e-11 -0.01729401 0)
           6.85               (-1.2314669e-10 -0.014715484 0)
            6.9               (-1.7824794e-11 -0.010695941 0)
           6.95               (-6.598782e-10 -0.0056293654 0)
              7               (2.4239754e-10 -1.2528376e-05 0)
           7.05               (-1.318881e-09 0.0056052232 0)
            7.1               (-7.9292972e-11 0.010675026 0)
           7.15               (-4.8556615e-10 0.014699881 0)
            7.2               (-8.9715869e-11 0.01728585 0)
           7.25               (-1.0634683e-10 0.018179723 0)
            7.3               (-2.2113225e-11 0.01729399 0)
           7.35               (1.2300123e-10 0.014715464 0)
            7.4               (1.4396638e-11 0.010695919 0)
           7.45               (6.5883099e-10 0.0056293464 0)
            7.5               (-2.3925601e-10 1.2510938e-05 0)
           7.55               (1.3211402e-09 -0.0056052415 0)
            7.6               (7.8118023e-11 -0.010675044 0)
           7.65               (4.8600298e-10 -0.0146999 0)
            7.7               (8.9417871e-11 -0.017285868 0)
           7.75               (1.0640198e-10 -0.018179741 0)
            7.8               (2.2019711e-11 -0.017294008 0)
           7.85               (-1.2311757e-10 -0.014715482 0)
            7.9               (-1.7104534e-11 -0.010695938 0)
           7.95               (-6.596629e-10 -0.0056293636 0)
              8               (2.4175409e-10 -1.2526892e-05 0)
           8.05               (-1.3193681e-09 0.0056052249 0)
            8.1               (-7.9043782e-11 0.010675027 0)
           8.15               (-4.8566291e-10 0.014699883 0)
            8.2               (-8.9655612e-11 0.017285852 0)
           8.25               (-1.0636051e-10 0.018179724 0)
            8.3               (-2.2093764e-11 0.017293991 0)
           8.35               (1.2302529e-10 0.014715466 0)
            8.4               (1.497122e-11 0.010695921 0)
           8.45               (6.5900787e-10 0.005629348 0)
            8.5               (-2.3977206e-10 1.2512324e-05 0)
           8.55               (1.3207677e-09 -0.0056052399 0)
            8.6               (7.8310952e-11 -0.010675043 0)
           8.65               (4.8593145e-10 -0.014699898 0)
            8.7               (8.9466499e-11 -0.017285867 0)
           8.75               (1.0639349e-10 -0.018179739 0)
            8.8               (2.2036326e-11 -0.017294006 0)
           8.85               (-1.2309749e-10 -0.01471548 0)
            8.9               (-1.6654178e-11 -0.010695937 0)
           8.95               (-6.5952656e-10 -0.0056293621 0)
              9               (2.4135438e-10 -1.2525611e-05 0)
           9.05               (-1.3196673e-09 0.0056052263 0)
            9.1               (-7.8888045e-11 0.010675029 0)
           9.15               (-4.8572202e-10 0.014699884 0)
            9.2               (-8.9616644e-11 0.017285853 0)
           9.25               (-1.0636848e-10 0.018179726 0)
            9.3               (-2.2079938e-11 0.017293993 0)
           9.35               (1.2304196e-10 0.014715467 0)
            9.4               (1.532936e-11 0.010695923 0)
           9.45               (6.5911896e-10 0.0056293493 0)
            9.5               (-2.4009023e-10 1.2513509e-05 0)
           9.55               (1.3205367e-09 -0.0056052387 0)
            9.6               (7.843316e-11 -0.010675041 0)
           9.65               (4.8588844e-10 -0.014699897 0)
            9.7               (8.9498724e-11 -0.017285866 0)
           9.75               (1.0638947e-10 -0.018179738 0)
            9.8               (2.2048359e-11 -0.017294005 0)
           9.85               (-1.2308335e-10 -0.014715479 0)
            9.9               (-1.6372412e-11 -0.010695935 0)
           9.95               (-6.5944003e-10 -0.0056293609 0)
             10               (2.4110685e-10 -1.2524521e-05 0)
