/*--------------------------------*- C++ -*----------------------------------*\
| =========                 |                                                 |
| \\      /  F ield         | OpenFOAM: The Open Source CFD Toolbox           |
|  \\    /   O peration     | Version:  5.x                                   |
|   \\  /    A nd           | Web:      www.OpenFOAM.org                      |
|    \\/     M anipulation  |                                                 |
\*---------------------------------------------------------------------------*/
FoamFile
{
    version     2.0;
    format      ascii;
    class       volScalarField;
    location    "2";
    object      p;
}
// * * * * * * * * * * * * * * * * * * * * * * * * * * * * * * * * * * * * * //

dimensions      [0 2 -2 0 0 0 0];

internalField   nonuniform List<scalar> 
1920
(
-4712.867
-4712.8732
-4712.8613
-4712.8474
-4712.8474
-4712.8613
-4712.8733
-4712.867
-4712.8631
-4712.8697
-4712.8636
-4712.8544
-4712.8544
-4712.8636
-4712.8697
-4712.8631
-4712.8596
-4712.8671
-4712.8666
-4712.8621
-4712.8621
-4712.8666
-4712.8671
-4712.8596
-4712.8577
-4712.8671
-4712.8702
-4712.8687
-4712.8687
-4712.8702
-4712.8671
-4712.8577
-4712.8588
-4712.8692
-4712.8748
-4712.875
-4712.875
-4712.8748
-4712.8692
-4712.8588
-4712.8623
-4712.8734
-4712.8803
-4712.8817
-4712.8817
-4712.8803
-4712.8734
-4712.8623
-4712.8682
-4712.8793
-4712.8869
-4712.889
-4712.889
-4712.8869
-4712.8793
-4712.8682
-4712.8761
-4712.8869
-4712.8945
-4712.897
-4712.897
-4712.8945
-4712.8869
-4712.8761
-4712.8858
-4712.8958
-4712.9032
-4712.9058
-4712.9058
-4712.9032
-4712.8958
-4712.8859
-4712.897
-4712.9061
-4712.9127
-4712.9153
-4712.9153
-4712.9127
-4712.9061
-4712.897
-4712.9094
-4712.9172
-4712.9232
-4712.9255
-4712.9255
-4712.9232
-4712.9172
-4712.9094
-4712.9226
-4712.9292
-4712.9343
-4712.9364
-4712.9364
-4712.9343
-4712.9292
-4712.9226
-4712.9364
-4712.9418
-4712.946
-4712.9478
-4712.9478
-4712.946
-4712.9418
-4712.9364
-4712.9505
-4712.9548
-4712.9582
-4712.9597
-4712.9597
-4712.9582
-4712.9548
-4712.9505
-4712.9648
-4712.9681
-4712.9708
-4712.972
-4712.972
-4712.9708
-4712.9681
-4712.9648
-4712.9791
-4712.9816
-4712.9836
-4712.9846
-4712.9846
-4712.9836
-4712.9816
-4712.9791
-4712.9933
-4712.9952
-4712.9967
-4712.9975
-4712.9975
-4712.9967
-4712.9952
-4712.9934
-4713.0075
-4713.0088
-4713.0099
-4713.0105
-4713.0105
-4713.0099
-4713.0088
-4713.0075
-4713.0216
-4713.0225
-4713.0232
-4713.0237
-4713.0237
-4713.0232
-4713.0225
-4713.0216
-4713.0355
-4713.0361
-4713.0366
-4713.0369
-4713.0369
-4713.0366
-4713.0361
-4713.0355
-4713.0493
-4713.0497
-4713.05
-4713.0503
-4713.0503
-4713.0501
-4713.0497
-4713.0493
-4713.0631
-4713.0633
-4713.0635
-4713.0637
-4713.0637
-4713.0635
-4713.0633
-4713.0631
-4713.0767
-4713.0768
-4713.077
-4713.0771
-4713.0771
-4713.077
-4713.0768
-4713.0767
-4713.0903
-4713.0903
-4713.0904
-4713.0905
-4713.0905
-4713.0904
-4713.0903
-4713.0903
-4713.1038
-4713.1038
-4713.1039
-4713.104
-4713.104
-4713.1039
-4713.1039
-4713.1038
-4713.1173
-4713.1173
-4713.1174
-4713.1174
-4713.1174
-4713.1174
-4713.1173
-4713.1173
-4713.1308
-4713.1308
-4713.1308
-4713.1309
-4713.1309
-4713.1308
-4713.1308
-4713.1308
-4713.1443
-4713.1443
-4713.1443
-4713.1443
-4713.1443
-4713.1443
-4713.1443
-4713.1443
-4713.1577
-4713.1577
-4713.1578
-4713.1578
-4713.1578
-4713.1578
-4713.1577
-4713.1577
-4713.1712
-4713.1712
-4713.1712
-4713.1712
-4713.1712
-4713.1712
-4713.1712
-4713.1712
-4713.1846
-4713.1847
-4713.1847
-4713.1847
-4713.1847
-4713.1847
-4713.1847
-4713.1846
-4713.1981
-4713.1981
-4713.1982
-4713.1982
-4713.1982
-4713.1982
-4713.1981
-4713.1981
-4713.2116
-4713.2116
-4713.2116
-4713.2117
-4713.2117
-4713.2116
-4713.2116
-4713.2116
-4713.225
-4713.2251
-4713.2251
-4713.2251
-4713.2251
-4713.2251
-4713.2251
-4713.225
-4713.2385
-4713.2386
-4713.2386
-4713.2386
-4713.2386
-4713.2386
-4713.2385
-4713.2385
-4713.252
-4713.252
-4713.2521
-4713.2521
-4713.2521
-4713.2521
-4713.252
-4713.252
-4713.2655
-4713.2655
-4713.2655
-4713.2656
-4713.2656
-4713.2655
-4713.2655
-4713.2654
-4713.2789
-4713.279
-4713.279
-4713.279
-4713.279
-4713.279
-4713.279
-4713.2789
-4713.2924
-4713.2925
-4713.2925
-4713.2925
-4713.2925
-4713.2925
-4713.2925
-4713.2924
-4713.3059
-4713.306
-4713.306
-4713.306
-4713.306
-4713.306
-4713.3059
-4713.3059
-4713.3194
-4713.3195
-4713.3195
-4713.3195
-4713.3195
-4713.3195
-4713.3194
-4713.3194
-4713.3329
-4713.3329
-4713.333
-4713.333
-4713.333
-4713.333
-4713.3329
-4713.3329
-4713.3464
-4713.3464
-4713.3465
-4713.3465
-4713.3465
-4713.3465
-4713.3464
-4713.3464
-4713.3599
-4713.3599
-4713.36
-4713.36
-4713.36
-4713.36
-4713.3599
-4713.3599
-4713.3734
-4713.3734
-4713.3735
-4713.3735
-4713.3735
-4713.3735
-4713.3734
-4713.3734
-4713.3869
-4713.3869
-4713.387
-4713.387
-4713.387
-4713.387
-4713.3869
-4713.3869
-4713.4004
-4713.4005
-4713.4005
-4713.4005
-4713.4005
-4713.4005
-4713.4004
-4713.4004
-4713.4139
-4713.414
-4713.414
-4713.414
-4713.414
-4713.414
-4713.4139
-4713.4139
-4713.4274
-4713.4275
-4713.4275
-4713.4275
-4713.4275
-4713.4275
-4713.4275
-4713.4274
-4713.4409
-4713.441
-4713.441
-4713.441
-4713.441
-4713.441
-4713.441
-4713.4409
-4713.4545
-4713.4545
-4713.4545
-4713.4545
-4713.4545
-4713.4545
-4713.4545
-4713.4544
-4713.468
-4713.468
-4713.468
-4713.4681
-4713.4681
-4713.468
-4713.468
-4713.468
-4713.4815
-4713.4815
-4713.4816
-4713.4816
-4713.4816
-4713.4816
-4713.4815
-4713.4815
-4713.495
-4713.495
-4713.4951
-4713.4951
-4713.4951
-4713.4951
-4713.495
-4713.495
-4713.5085
-4713.5086
-4713.5086
-4713.5086
-4713.5086
-4713.5086
-4713.5086
-4713.5085
-4713.5221
-4713.5221
-4713.5221
-4713.5221
-4713.5221
-4713.5221
-4713.5221
-4713.5221
-4713.5356
-4713.5356
-4713.5356
-4713.5357
-4713.5357
-4713.5356
-4713.5356
-4713.5356
-4713.5491
-4713.5491
-4713.5492
-4713.5492
-4713.5492
-4713.5492
-4713.5491
-4713.5491
-4713.5626
-4713.5627
-4713.5627
-4713.5627
-4713.5627
-4713.5627
-4713.5627
-4713.5626
-4713.5762
-4713.5762
-4713.5762
-4713.5762
-4713.5762
-4713.5762
-4713.5762
-4713.5762
-4713.5897
-4713.5897
-4713.5898
-4713.5898
-4713.5898
-4713.5898
-4713.5897
-4713.5897
-4713.6033
-4713.6033
-4713.6033
-4713.6033
-4713.6033
-4713.6033
-4713.6033
-4713.6033
-4713.6168
-4713.6168
-4713.6168
-4713.6169
-4713.6169
-4713.6168
-4713.6168
-4713.6168
-4713.6303
-4713.6304
-4713.6304
-4713.6304
-4713.6304
-4713.6304
-4713.6304
-4713.6303
-4713.6439
-4713.6439
-4713.6439
-4713.6439
-4713.6439
-4713.6439
-4713.6439
-4713.6439
-4713.6574
-4713.6574
-4713.6575
-4713.6575
-4713.6575
-4713.6575
-4713.6574
-4713.6574
-4713.671
-4713.671
-4713.671
-4713.671
-4713.671
-4713.671
-4713.671
-4713.6709
-4713.6845
-4713.6845
-4713.6845
-4713.6846
-4713.6846
-4713.6845
-4713.6845
-4713.6845
-4713.698
-4713.6981
-4713.6981
-4713.6981
-4713.6981
-4713.6981
-4713.6981
-4713.698
-4713.7116
-4713.7116
-4713.7116
-4713.7116
-4713.7116
-4713.7116
-4713.7116
-4713.7116
-4713.7251
-4713.7252
-4713.7252
-4713.7252
-4713.7252
-4713.7252
-4713.7252
-4713.7251
-4713.7387
-4713.7387
-4713.7387
-4713.7387
-4713.7387
-4713.7387
-4713.7387
-4713.7387
-4713.7522
-4713.7523
-4713.7523
-4713.7523
-4713.7523
-4713.7523
-4713.7523
-4713.7522
-4713.7658
-4713.7658
-4713.7658
-4713.7658
-4713.7658
-4713.7658
-4713.7658
-4713.7658
-4713.7793
-4713.7794
-4713.7794
-4713.7794
-4713.7794
-4713.7794
-4713.7794
-4713.7793
-4713.7929
-4713.7929
-4713.7929
-4713.7929
-4713.7929
-4713.7929
-4713.7929
-4713.7929
-4713.8065
-4713.8065
-4713.8065
-4713.8065
-4713.8065
-4713.8065
-4713.8065
-4713.8065
-4713.82
-4713.82
-4713.82
-4713.8201
-4713.8201
-4713.82
-4713.82
-4713.82
-4713.8336
-4713.8336
-4713.8336
-4713.8336
-4713.8336
-4713.8336
-4713.8336
-4713.8336
-4713.8471
-4713.8471
-4713.8472
-4713.8472
-4713.8472
-4713.8472
-4713.8471
-4713.8471
-4713.8607
-4713.8607
-4713.8607
-4713.8607
-4713.8607
-4713.8607
-4713.8607
-4713.8607
-4713.8742
-4713.8743
-4713.8743
-4713.8743
-4713.8743
-4713.8743
-4713.8743
-4713.8742
-4713.8878
-4713.8878
-4713.8878
-4713.8878
-4713.8878
-4713.8878
-4713.8878
-4713.8878
-4713.9014
-4713.9014
-4713.9014
-4713.9014
-4713.9014
-4713.9014
-4713.9014
-4713.9014
-4713.9149
-4713.9149
-4713.915
-4713.915
-4713.915
-4713.915
-4713.9149
-4713.9149
-4713.9285
-4713.9285
-4713.9285
-4713.9285
-4713.9285
-4713.9285
-4713.9285
-4713.9285
-4713.942
-4713.9421
-4713.9421
-4713.9421
-4713.9421
-4713.9421
-4713.9421
-4713.942
-4713.9556
-4713.9556
-4713.9556
-4713.9556
-4713.9556
-4713.9556
-4713.9556
-4713.9556
-4713.9692
-4713.9692
-4713.9692
-4713.9692
-4713.9692
-4713.9692
-4713.9692
-4713.9692
-4713.9827
-4713.9828
-4713.9828
-4713.9828
-4713.9828
-4713.9828
-4713.9828
-4713.9827
-4713.9963
-4713.9963
-4713.9963
-4713.9963
-4713.9963
-4713.9963
-4713.9963
-4713.9963
-4714.0099
-4714.0099
-4714.0099
-4714.0099
-4714.0099
-4714.0099
-4714.0099
-4714.0099
-4714.0234
-4714.0235
-4714.0235
-4714.0235
-4714.0235
-4714.0235
-4714.0235
-4714.0234
-4714.037
-4714.037
-4714.037
-4714.037
-4714.037
-4714.037
-4714.037
-4714.037
-4714.0506
-4714.0506
-4714.0506
-4714.0506
-4714.0506
-4714.0506
-4714.0506
-4714.0506
-4714.0641
-4714.0641
-4714.0642
-4714.0642
-4714.0642
-4714.0642
-4714.0641
-4714.0641
-4714.0777
-4714.0777
-4714.0777
-4714.0777
-4714.0777
-4714.0777
-4714.0777
-4714.0777
-4714.0913
-4714.0913
-4714.0913
-4714.0913
-4714.0913
-4714.0913
-4714.0913
-4714.0913
-4714.1048
-4714.1049
-4714.1049
-4714.1049
-4714.1049
-4714.1049
-4714.1049
-4714.1048
-4714.1184
-4714.1184
-4714.1184
-4714.1184
-4714.1184
-4714.1184
-4714.1184
-4714.1184
-4714.132
-4714.132
-4714.132
-4714.132
-4714.132
-4714.132
-4714.132
-4714.132
-4714.1456
-4714.1456
-4714.1456
-4714.1456
-4714.1456
-4714.1456
-4714.1456
-4714.1456
-4714.1591
-4714.1591
-4714.1591
-4714.1591
-4714.1591
-4714.1591
-4714.1591
-4714.1591
-4714.1727
-4714.1727
-4714.1727
-4714.1727
-4714.1727
-4714.1727
-4714.1727
-4714.1727
-4714.1863
-4714.1863
-4714.1863
-4714.1863
-4714.1863
-4714.1863
-4714.1863
-4714.1863
-4714.1998
-4714.1998
-4714.1998
-4714.1998
-4714.1998
-4714.1998
-4714.1998
-4714.1998
-4714.2134
-4714.2134
-4714.2134
-4714.2134
-4714.2134
-4714.2134
-4714.2134
-4714.2134
-4714.227
-4714.227
-4714.227
-4714.227
-4714.227
-4714.227
-4714.227
-4714.227
-4714.2405
-4714.2406
-4714.2406
-4714.2406
-4714.2406
-4714.2406
-4714.2406
-4714.2405
-4714.2541
-4714.2541
-4714.2541
-4714.2541
-4714.2541
-4714.2541
-4714.2541
-4714.2541
-4714.2677
-4714.2677
-4714.2677
-4714.2677
-4714.2677
-4714.2677
-4714.2677
-4714.2677
-4714.2813
-4714.2813
-4714.2813
-4714.2813
-4714.2813
-4714.2813
-4714.2813
-4714.2813
-4714.2948
-4714.2948
-4714.2948
-4714.2948
-4714.2948
-4714.2948
-4714.2948
-4714.2948
-4714.3084
-4714.3084
-4714.3084
-4714.3084
-4714.3084
-4714.3084
-4714.3084
-4714.3084
-4714.322
-4714.322
-4714.322
-4714.322
-4714.322
-4714.322
-4714.322
-4714.322
-4714.3355
-4714.3355
-4714.3356
-4714.3355
-4714.3355
-4714.3355
-4714.3355
-4714.3355
-4714.3491
-4714.3491
-4714.3491
-4714.3491
-4714.3491
-4714.3491
-4714.3491
-4714.3491
-4714.3627
-4714.3627
-4714.3627
-4714.3627
-4714.3627
-4714.3627
-4714.3627
-4714.3627
-4714.3763
-4714.3763
-4714.3763
-4714.3763
-4714.3763
-4714.3763
-4714.3763
-4714.3763
-4714.3898
-4714.3898
-4714.3898
-4714.3898
-4714.3898
-4714.3898
-4714.3898
-4714.3898
-4714.4034
-4714.4034
-4714.4034
-4714.4034
-4714.4034
-4714.4034
-4714.4034
-4714.4034
-4714.417
-4714.417
-4714.417
-4714.417
-4714.417
-4714.417
-4714.417
-4714.417
-4714.4305
-4714.4305
-4714.4305
-4714.4305
-4714.4305
-4714.4305
-4714.4305
-4714.4305
-4714.4441
-4714.4441
-4714.4441
-4714.4441
-4714.4441
-4714.4441
-4714.4441
-4714.4441
-4714.4577
-4714.4577
-4714.4577
-4714.4577
-4714.4577
-4714.4577
-4714.4577
-4714.4577
-4714.4713
-4714.4713
-4714.4713
-4714.4713
-4714.4713
-4714.4713
-4714.4713
-4714.4713
-4714.4848
-4714.4848
-4714.4848
-4714.4848
-4714.4848
-4714.4848
-4714.4848
-4714.4848
-4714.4984
-4714.4984
-4714.4984
-4714.4984
-4714.4984
-4714.4984
-4714.4984
-4714.4984
-4714.512
-4714.512
-4714.512
-4714.512
-4714.512
-4714.512
-4714.512
-4714.512
-4714.5255
-4714.5255
-4714.5255
-4714.5255
-4714.5255
-4714.5255
-4714.5255
-4714.5255
-4714.5391
-4714.5391
-4714.5391
-4714.5391
-4714.5391
-4714.5391
-4714.5391
-4714.5391
-4714.5527
-4714.5527
-4714.5527
-4714.5527
-4714.5527
-4714.5527
-4714.5527
-4714.5527
-4714.5662
-4714.5663
-4714.5663
-4714.5663
-4714.5663
-4714.5663
-4714.5663
-4714.5662
-4714.5798
-4714.5798
-4714.5798
-4714.5798
-4714.5798
-4714.5798
-4714.5798
-4714.5798
-4714.5934
-4714.5934
-4714.5934
-4714.5934
-4714.5934
-4714.5934
-4714.5934
-4714.5934
-4714.607
-4714.607
-4714.607
-4714.607
-4714.607
-4714.607
-4714.607
-4714.607
-4714.6205
-4714.6205
-4714.6205
-4714.6205
-4714.6205
-4714.6205
-4714.6205
-4714.6205
-4714.6341
-4714.6341
-4714.6341
-4714.6341
-4714.6341
-4714.6341
-4714.6341
-4714.6341
-4714.6477
-4714.6477
-4714.6477
-4714.6477
-4714.6477
-4714.6477
-4714.6477
-4714.6477
-4714.6612
-4714.6612
-4714.6612
-4714.6612
-4714.6612
-4714.6612
-4714.6612
-4714.6612
-4714.6748
-4714.6748
-4714.6748
-4714.6748
-4714.6748
-4714.6748
-4714.6748
-4714.6748
-4714.6884
-4714.6884
-4714.6884
-4714.6884
-4714.6884
-4714.6884
-4714.6884
-4714.6884
-4714.7019
-4714.7019
-4714.7019
-4714.7019
-4714.7019
-4714.7019
-4714.7019
-4714.7019
-4714.7155
-4714.7155
-4714.7155
-4714.7155
-4714.7155
-4714.7155
-4714.7155
-4714.7155
-4714.7291
-4714.7291
-4714.7291
-4714.7291
-4714.7291
-4714.7291
-4714.7291
-4714.7291
-4714.7427
-4714.7426
-4714.7426
-4714.7426
-4714.7426
-4714.7426
-4714.7426
-4714.7427
-4714.7562
-4714.7562
-4714.7562
-4714.7562
-4714.7562
-4714.7562
-4714.7562
-4714.7562
-4714.7698
-4714.7698
-4714.7698
-4714.7698
-4714.7698
-4714.7698
-4714.7698
-4714.7698
-4714.7833
-4714.7834
-4714.7833
-4714.7833
-4714.7833
-4714.7833
-4714.7834
-4714.7833
-4714.7969
-4714.7969
-4714.7969
-4714.7969
-4714.7969
-4714.7969
-4714.7969
-4714.7969
-4714.8105
-4714.8105
-4714.8105
-4714.8105
-4714.8105
-4714.8105
-4714.8105
-4714.8105
-4714.8241
-4714.824
-4714.824
-4714.824
-4714.824
-4714.824
-4714.824
-4714.8241
-4714.8376
-4714.8376
-4714.8376
-4714.8376
-4714.8376
-4714.8376
-4714.8376
-4714.8376
-4714.8512
-4714.8512
-4714.8512
-4714.8512
-4714.8512
-4714.8512
-4714.8512
-4714.8512
-4714.8647
-4714.8647
-4714.8647
-4714.8647
-4714.8647
-4714.8647
-4714.8647
-4714.8647
-4714.8783
-4714.8783
-4714.8783
-4714.8783
-4714.8783
-4714.8783
-4714.8783
-4714.8783
-4714.8919
-4714.8919
-4714.8919
-4714.8919
-4714.8919
-4714.8919
-4714.8919
-4714.8919
-4714.9054
-4714.9054
-4714.9054
-4714.9054
-4714.9054
-4714.9054
-4714.9054
-4714.9054
-4714.919
-4714.919
-4714.919
-4714.919
-4714.919
-4714.919
-4714.919
-4714.919
-4714.9326
-4714.9326
-4714.9326
-4714.9326
-4714.9326
-4714.9326
-4714.9326
-4714.9326
-4714.9461
-4714.9461
-4714.9461
-4714.9461
-4714.9461
-4714.9461
-4714.9461
-4714.9461
-4714.9597
-4714.9597
-4714.9597
-4714.9597
-4714.9597
-4714.9597
-4714.9597
-4714.9597
-4714.9732
-4714.9732
-4714.9732
-4714.9732
-4714.9732
-4714.9732
-4714.9732
-4714.9732
-4714.9868
-4714.9868
-4714.9868
-4714.9868
-4714.9868
-4714.9868
-4714.9868
-4714.9868
-4715.0004
-4715.0004
-4715.0004
-4715.0004
-4715.0004
-4715.0004
-4715.0004
-4715.0004
-4715.0139
-4715.0139
-4715.0139
-4715.0139
-4715.0139
-4715.0139
-4715.0139
-4715.0139
-4715.0275
-4715.0275
-4715.0275
-4715.0275
-4715.0275
-4715.0275
-4715.0275
-4715.0275
-4715.041
-4715.041
-4715.041
-4715.041
-4715.041
-4715.041
-4715.041
-4715.041
-4715.0546
-4715.0546
-4715.0546
-4715.0546
-4715.0546
-4715.0546
-4715.0546
-4715.0546
-4715.0682
-4715.0682
-4715.0682
-4715.0681
-4715.0681
-4715.0682
-4715.0682
-4715.0682
-4715.0817
-4715.0817
-4715.0817
-4715.0817
-4715.0817
-4715.0817
-4715.0817
-4715.0817
-4715.0953
-4715.0953
-4715.0953
-4715.0953
-4715.0953
-4715.0953
-4715.0953
-4715.0953
-4715.1088
-4715.1088
-4715.1088
-4715.1088
-4715.1088
-4715.1088
-4715.1088
-4715.1088
-4715.1224
-4715.1224
-4715.1224
-4715.1224
-4715.1224
-4715.1224
-4715.1224
-4715.1224
-4715.1359
-4715.1359
-4715.1359
-4715.1359
-4715.1359
-4715.1359
-4715.1359
-4715.1359
-4715.1495
-4715.1495
-4715.1495
-4715.1495
-4715.1495
-4715.1495
-4715.1495
-4715.1495
-4715.163
-4715.163
-4715.163
-4715.163
-4715.163
-4715.163
-4715.163
-4715.163
-4715.1766
-4715.1766
-4715.1766
-4715.1766
-4715.1766
-4715.1766
-4715.1766
-4715.1766
-4715.1901
-4715.1901
-4715.1901
-4715.1901
-4715.1901
-4715.1901
-4715.1901
-4715.1901
-4715.2037
-4715.2037
-4715.2037
-4715.2037
-4715.2037
-4715.2037
-4715.2037
-4715.2037
-4715.2173
-4715.2172
-4715.2172
-4715.2172
-4715.2172
-4715.2172
-4715.2172
-4715.2172
-4715.2308
-4715.2308
-4715.2308
-4715.2308
-4715.2308
-4715.2308
-4715.2308
-4715.2308
-4715.2443
-4715.2443
-4715.2443
-4715.2443
-4715.2443
-4715.2443
-4715.2443
-4715.2443
-4715.2579
-4715.2579
-4715.2579
-4715.2579
-4715.2579
-4715.2579
-4715.2579
-4715.2579
-4715.2714
-4715.2714
-4715.2714
-4715.2714
-4715.2714
-4715.2714
-4715.2714
-4715.2714
-4715.285
-4715.285
-4715.285
-4715.285
-4715.285
-4715.285
-4715.285
-4715.285
-4715.2985
-4715.2985
-4715.2985
-4715.2985
-4715.2985
-4715.2985
-4715.2985
-4715.2985
-4715.3121
-4715.3121
-4715.3121
-4715.3121
-4715.3121
-4715.3121
-4715.3121
-4715.3121
-4715.3256
-4715.3256
-4715.3256
-4715.3256
-4715.3256
-4715.3256
-4715.3256
-4715.3256
-4715.3392
-4715.3392
-4715.3392
-4715.3392
-4715.3392
-4715.3392
-4715.3392
-4715.3392
-4715.3527
-4715.3527
-4715.3527
-4715.3527
-4715.3527
-4715.3527
-4715.3527
-4715.3527
-4715.3663
-4715.3663
-4715.3663
-4715.3663
-4715.3663
-4715.3663
-4715.3663
-4715.3663
-4715.3798
-4715.3798
-4715.3798
-4715.3798
-4715.3798
-4715.3798
-4715.3798
-4715.3798
-4715.3934
-4715.3933
-4715.3933
-4715.3933
-4715.3933
-4715.3933
-4715.3933
-4715.3934
-4715.4069
-4715.4069
-4715.4069
-4715.4069
-4715.4069
-4715.4069
-4715.4069
-4715.4069
-4715.4204
-4715.4204
-4715.4204
-4715.4204
-4715.4204
-4715.4204
-4715.4204
-4715.4204
-4715.434
-4715.434
-4715.434
-4715.434
-4715.434
-4715.434
-4715.434
-4715.434
-4715.4475
-4715.4475
-4715.4475
-4715.4475
-4715.4475
-4715.4475
-4715.4475
-4715.4475
-4715.461
-4715.461
-4715.461
-4715.461
-4715.461
-4715.461
-4715.461
-4715.461
-4715.4746
-4715.4746
-4715.4746
-4715.4746
-4715.4746
-4715.4746
-4715.4746
-4715.4746
-4715.4881
-4715.4881
-4715.4881
-4715.4881
-4715.4881
-4715.4881
-4715.4881
-4715.4881
-4715.5017
-4715.5016
-4715.5016
-4715.5016
-4715.5016
-4715.5016
-4715.5016
-4715.5017
-4715.5152
-4715.5152
-4715.5152
-4715.5152
-4715.5152
-4715.5152
-4715.5152
-4715.5152
-4715.5287
-4715.5287
-4715.5287
-4715.5287
-4715.5287
-4715.5287
-4715.5287
-4715.5287
-4715.5423
-4715.5422
-4715.5422
-4715.5422
-4715.5422
-4715.5422
-4715.5423
-4715.5423
-4715.5558
-4715.5558
-4715.5558
-4715.5558
-4715.5558
-4715.5558
-4715.5558
-4715.5558
-4715.5693
-4715.5693
-4715.5693
-4715.5693
-4715.5693
-4715.5693
-4715.5693
-4715.5693
-4715.5828
-4715.5828
-4715.5828
-4715.5828
-4715.5828
-4715.5828
-4715.5828
-4715.5829
-4715.5964
-4715.5964
-4715.5963
-4715.5963
-4715.5963
-4715.5963
-4715.5964
-4715.5964
-4715.6099
-4715.6099
-4715.6099
-4715.6099
-4715.6099
-4715.6099
-4715.6099
-4715.6099
-4715.6234
-4715.6234
-4715.6234
-4715.6234
-4715.6234
-4715.6234
-4715.6234
-4715.6234
-4715.6369
-4715.6369
-4715.6369
-4715.6369
-4715.6369
-4715.6369
-4715.6369
-4715.6369
-4715.6505
-4715.6504
-4715.6504
-4715.6504
-4715.6504
-4715.6504
-4715.6504
-4715.6505
-4715.664
-4715.6639
-4715.6639
-4715.6639
-4715.6639
-4715.6639
-4715.664
-4715.664
-4715.6775
-4715.6775
-4715.6774
-4715.6774
-4715.6774
-4715.6774
-4715.6775
-4715.6775
-4715.691
-4715.691
-4715.691
-4715.6909
-4715.6909
-4715.691
-4715.691
-4715.691
-4715.7045
-4715.7045
-4715.7045
-4715.7045
-4715.7045
-4715.7045
-4715.7045
-4715.7045
-4715.718
-4715.718
-4715.718
-4715.718
-4715.718
-4715.718
-4715.718
-4715.7181
-4715.7316
-4715.7315
-4715.7315
-4715.7314
-4715.7315
-4715.7315
-4715.7315
-4715.7316
-4715.7451
-4715.745
-4715.745
-4715.7449
-4715.7449
-4715.745
-4715.745
-4715.7451
-4715.7586
-4715.7586
-4715.7585
-4715.7584
-4715.7584
-4715.7585
-4715.7586
-4715.7586
-4715.7722
-4715.7721
-4715.772
-4715.7719
-4715.7719
-4715.772
-4715.7721
-4715.7722
-4715.7857
-4715.7856
-4715.7854
-4715.7853
-4715.7853
-4715.7854
-4715.7856
-4715.7858
-4715.7994
-4715.7991
-4715.7989
-4715.7988
-4715.7988
-4715.7989
-4715.7991
-4715.7994
-4715.813
-4715.8127
-4715.8123
-4715.8122
-4715.8122
-4715.8123
-4715.8127
-4715.813
-4715.8267
-4715.8262
-4715.8258
-4715.8256
-4715.8256
-4715.8258
-4715.8262
-4715.8267
-4715.8404
-4715.8397
-4715.8392
-4715.8389
-4715.8389
-4715.8391
-4715.8397
-4715.8404
-4715.8542
-4715.8532
-4715.8525
-4715.8521
-4715.8521
-4715.8525
-4715.8532
-4715.8541
-4715.8679
-4715.8667
-4715.8657
-4715.8653
-4715.8653
-4715.8657
-4715.8667
-4715.8679
-4715.8817
-4715.8801
-4715.8789
-4715.8783
-4715.8783
-4715.8788
-4715.8801
-4715.8817
-4715.8955
-4715.8934
-4715.8919
-4715.8912
-4715.8912
-4715.8918
-4715.8934
-4715.8954
-4715.9092
-4715.9066
-4715.9047
-4715.904
-4715.9039
-4715.9047
-4715.9065
-4715.9091
-4715.9227
-4715.9195
-4715.9173
-4715.9165
-4715.9165
-4715.9172
-4715.9194
-4715.9225
-4715.9359
-4715.9322
-4715.9296
-4715.9288
-4715.9287
-4715.9296
-4715.932
-4715.9357
-4715.9486
-4715.9444
-4715.9416
-4715.9408
-4715.9408
-4715.9415
-4715.9442
-4715.9484
-4715.9606
-4715.956
-4715.9532
-4715.9526
-4715.9525
-4715.9531
-4715.9559
-4715.9604
-4715.9718
-4715.967
-4715.9644
-4715.9642
-4715.9642
-4715.9643
-4715.9668
-4715.9716
-4715.982
-4715.9771
-4715.9751
-4715.9756
-4715.9756
-4715.975
-4715.9769
-4715.9817
-4715.9914
-4715.9868
-4715.9852
-4715.986
-4715.9859
-4715.985
-4715.9865
-4715.9911
-4715.9993
-4715.997
-4715.995
-4715.994
-4715.994
-4715.9949
-4715.9969
-4715.9992
)
;

boundaryField
{
    left
    {
        type            zeroGradient;
    }
    right
    {
        type            WKBC;
        index           0;
        value           uniform -4716.0006;
    }
    walls
    {
        type            zeroGradient;
    }
    frontAndBack
    {
        type            empty;
    }
}


// ************************************************************************* //
