/*--------------------------------*- C++ -*----------------------------------*\
| =========                 |                                                 |
| \\      /  F ield         | OpenFOAM: The Open Source CFD Toolbox           |
|  \\    /   O peration     | Version:  5.x                                   |
|   \\  /    A nd           | Web:      www.OpenFOAM.org                      |
|    \\/     M anipulation  |                                                 |
\*---------------------------------------------------------------------------*/
FoamFile
{
    version     2.0;
    format      ascii;
    class       surfaceScalarField;
    location    "2";
    object      phi_0;
}
// * * * * * * * * * * * * * * * * * * * * * * * * * * * * * * * * * * * * * //

dimensions      [0 3 -1 0 0 0 0];

internalField   nonuniform List<scalar> 
3592
(
-1.8377651e-06
-1.7475797e-05
-1.1783522e-06
-1.9972973e-05
-5.8252628e-07
-1.9909385e-05
3.7745837e-13
-1.9896086e-05
5.8252702e-07
-1.9896086e-05
1.178352e-06
-1.9909385e-05
1.8377647e-06
-1.9972972e-05
-1.7475795e-05
-2.4551479e-06
-1.5020646e-05
-2.2249005e-06
-2.0203217e-05
-1.1931102e-06
-2.0941168e-05
7.2339685e-13
-2.1089191e-05
1.1931115e-06
-2.1089191e-05
2.2249004e-06
-2.0941168e-05
2.4551478e-06
-2.0203216e-05
-1.5020644e-05
-2.144855e-06
-1.2875787e-05
-2.3663602e-06
-1.9981706e-05
-1.375729e-06
-2.1931793e-05
9.470861e-13
-2.2464915e-05
1.3757305e-06
-2.2464915e-05
2.3663605e-06
-2.1931793e-05
2.1448553e-06
-1.9981706e-05
-1.2875786e-05
-1.6989257e-06
-1.1176857e-05
-2.1030431e-06
-1.9577583e-05
-1.304141e-06
-2.2730688e-05
1.0558718e-12
-2.3769052e-05
1.3041427e-06
-2.3769052e-05
2.1030436e-06
-2.2730689e-05
1.6989261e-06
-1.9577583e-05
-1.1176857e-05
-1.2794413e-06
-9.8974121e-06
-1.7146914e-06
-1.9142328e-05
-1.1176317e-06
-2.3327743e-05
1.0017253e-12
-2.488668e-05
1.1176333e-06
-2.4886681e-05
1.7146921e-06
-2.3327743e-05
1.2794418e-06
-1.9142327e-05
-9.897412e-06
-9.2888e-07
-8.968528e-06
-1.3247704e-06
-1.8746432e-05
-8.9892938e-07
-2.3753578e-05
8.6848403e-13
-2.5785606e-05
8.9893079e-07
-2.5785606e-05
1.3247712e-06
-2.3753578e-05
9.2888059e-07
-1.8746431e-05
-8.9685278e-06
-6.5540145e-07
-8.3131228e-06
-9.8476369e-07
-1.8417064e-05
-6.9114533e-07
-2.4047191e-05
6.6352556e-13
-2.6476748e-05
6.9114648e-07
-2.6476748e-05
9.8476467e-07
-2.4047191e-05
6.5540212e-07
-1.8417063e-05
-8.3131225e-06
-4.5217483e-07
-7.860944e-06
-7.1054503e-07
-1.8158688e-05
-5.1337256e-07
-2.4244359e-05
4.7219142e-13
-2.6990117e-05
5.1337341e-07
-2.6990116e-05
7.1054605e-07
-2.4244358e-05
4.5217554e-07
-1.8158687e-05
-7.8609436e-06
-3.0610991e-07
-7.5548309e-06
-5.0044525e-07
-1.7964348e-05
-3.7084159e-07
-2.4373959e-05
2.6079497e-13
-2.7360955e-05
3.7084216e-07
-2.7360955e-05
5.0044624e-07
-2.4373957e-05
3.0611065e-07
-1.7964347e-05
-7.5548304e-06
-2.03775e-07
-7.3510524e-06
-3.4520195e-07
-1.7822916e-05
-2.6166135e-07
-2.4457495e-05
9.8069991e-14
-2.7622613e-05
2.6166163e-07
-2.7622612e-05
3.4520287e-07
-2.4457493e-05
2.0377571e-07
-1.7822915e-05
-7.3510519e-06
-1.3346044e-07
-7.2175896e-06
-2.3370627e-07
-1.7722666e-05
-1.8082867e-07
-2.451037e-05
-5.7248335e-14
-2.7803438e-05
1.8082873e-07
-2.7803438e-05
2.3370706e-07
-2.4510368e-05
1.334611e-07
-1.7722665e-05
-7.2175889e-06
-8.6032573e-08
-7.1315542e-06
-1.5543822e-07
-1.7653256e-05
-1.2261687e-07
-2.4543187e-05
-1.6984563e-13
-2.7926052e-05
1.2261673e-07
-2.7926051e-05
1.5543887e-07
-2.4543186e-05
8.6033168e-08
-1.7653255e-05
-7.1315536e-06
-5.452777e-08
-7.0770249e-06
-1.0160792e-07
-1.7606173e-05
-8.1644446e-08
-2.4563149e-05
-2.575125e-13
-2.8007694e-05
8.1644148e-08
-2.8007693e-05
1.016084e-07
-2.4563147e-05
5.452828e-08
-1.7606172e-05
-7.0770242e-06
-3.3948882e-08
-7.0430739e-06
-6.5241363e-08
-1.7574878e-05
-5.339497e-08
-2.4574992e-05
-3.2748586e-13
-2.8061085e-05
5.3394555e-08
-2.8061084e-05
6.5241687e-08
-2.457499e-05
3.3949303e-08
-1.7574876e-05
-7.0430734e-06
-2.0701327e-08
-7.0223716e-06
-4.1104264e-08
-1.7554473e-05
-3.4273891e-08
-2.4581821e-05
-3.6514171e-13
-2.8095357e-05
3.4273366e-08
-2.8095356e-05
4.1104435e-08
-2.458182e-05
2.0701652e-08
-1.7554471e-05
-7.022371e-06
-1.2323821e-08
-7.0100462e-06
-2.5349813e-08
-1.7541444e-05
-2.1564459e-08
-2.4585604e-05
-4.0553569e-13
-2.8116918e-05
2.1563881e-08
-2.8116918e-05
2.5349846e-08
-2.4585603e-05
1.2324064e-08
-1.7541443e-05
-7.0100458e-06
-7.1145665e-09
-7.002931e-06
-1.5250841e-08
-1.7533306e-05
-1.3264176e-08
-2.4587589e-05
-4.0903167e-13
-2.8130181e-05
1.3263527e-08
-2.813018e-05
1.5250764e-08
-2.4587589e-05
7.1147257e-09
-1.7533305e-05
-7.0029307e-06
-3.945634e-09
-6.9989841e-06
-8.8969668e-09
-1.7528352e-05
-7.9443263e-09
-2.458854e-05
-4.2825181e-13
-2.8138122e-05
7.9436717e-09
-2.8138122e-05
8.8967942e-09
-2.4588539e-05
3.9457347e-09
-1.7528352e-05
-6.998984e-06
-2.0630077e-09
-6.9969207e-06
-4.985448e-09
-1.7525429e-05
-4.602017e-09
-2.4588922e-05
-4.1145023e-13
-2.8142723e-05
4.6013306e-09
-2.8142723e-05
4.9852181e-09
-2.4588922e-05
2.0630501e-09
-1.7525429e-05
-6.9969208e-06
-9.8015158e-10
-6.9959395e-06
-2.6369844e-09
-1.752377e-05
-2.5500129e-09
-2.4589007e-05
-4.0712769e-13
-2.814527e-05
2.5493609e-09
-2.814527e-05
2.6367131e-09
-2.4589008e-05
9.8016526e-10
-1.7523771e-05
-6.9959397e-06
-3.8248658e-10
-6.9955567e-06
-1.2711534e-09
-1.7522881e-05
-1.3237929e-09
-2.4588954e-05
-3.7442755e-13
-2.8146593e-05
1.3231583e-09
-2.8146593e-05
1.2708763e-09
-2.4588955e-05
3.8247026e-10
-1.7522881e-05
-6.9955571e-06
-7.2839097e-11
-6.9954828e-06
-5.0909867e-10
-1.7522442e-05
-6.1598863e-10
-2.4588845e-05
-3.4540358e-13
-2.8147206e-05
6.1542364e-10
-2.8147207e-05
5.0883412e-10
-2.4588846e-05
7.2822031e-11
-1.7522444e-05
-6.9954834e-06
7.2047149e-11
-6.9955545e-06
-1.0923779e-10
-1.752226e-05
-2.2573017e-10
-2.4588727e-05
-2.9512288e-13
-2.8147431e-05
2.2523343e-10
-2.8147432e-05
1.0900865e-10
-2.4588729e-05
-7.2069527e-11
-1.7522262e-05
-6.9955553e-06
1.2593079e-10
-6.9956794e-06
8.0959529e-11
-1.7522213e-05
-2.512348e-11
-2.4588619e-05
-2.3601311e-13
-2.8147454e-05
2.4731837e-11
-2.8147455e-05
-8.113045e-11
-2.4588621e-05
-1.2593253e-10
-1.7522216e-05
-6.9956804e-06
1.3369754e-10
-6.9958128e-06
1.5416642e-10
-1.7522233e-05
6.6691381e-11
-2.4588531e-05
-1.7250062e-13
-2.8147386e-05
-6.6967419e-11
-2.8147387e-05
-1.542714e-10
-2.4588534e-05
-1.3368656e-10
-1.7522235e-05
-6.9958139e-06
1.1950697e-10
-6.9959312e-06
1.6700092e-10
-1.7522279e-05
9.8441125e-11
-2.4588461e-05
-9.4257896e-14
-2.8147286e-05
-9.8590313e-11
-2.8147287e-05
-1.670179e-10
-2.4588463e-05
-1.1946277e-10
-1.7522281e-05
-6.9959325e-06
9.8317727e-11
-6.9960292e-06
1.5090914e-10
-1.752233e-05
9.9987735e-11
-2.4588409e-05
-2.2394432e-14
-2.8147185e-05
-9.9993944e-11
-2.8147186e-05
-1.5084688e-10
-2.4588412e-05
-9.8251606e-11
-1.7522333e-05
-6.9960306e-06
7.5821206e-11
-6.996104e-06
1.2470605e-10
-1.7522378e-05
8.753987e-11
-2.458837e-05
6.4093553e-14
-2.8147096e-05
-8.7413403e-11
-2.8147097e-05
-1.2454478e-10
-2.4588373e-05
-7.571818e-11
-1.7522381e-05
-6.9961054e-06
5.6601025e-11
-6.9961603e-06
9.6642201e-11
-1.7522417e-05
7.089761e-11
-2.4588344e-05
1.3433109e-13
-2.8147024e-05
-7.0625435e-11
-2.8147026e-05
-9.640402e-11
-2.4588347e-05
-5.6474798e-11
-1.752242e-05
-6.9961617e-06
4.0243901e-11
-6.9961995e-06
7.2010891e-11
-1.7522447e-05
5.4049496e-11
-2.4588324e-05
2.1607017e-13
-2.8146969e-05
-5.3656944e-11
-2.814697e-05
-7.1680283e-11
-2.4588327e-05
-4.0084208e-11
-1.752245e-05
-6.996201e-06
2.8283145e-11
-6.9962275e-06
5.1287953e-11
-1.7522469e-05
3.9690198e-11
-2.4588312e-05
2.7498765e-13
-2.8146929e-05
-3.9171861e-11
-2.814693e-05
-5.0895042e-11
-2.4588315e-05
-2.8104768e-11
-1.7522472e-05
-6.9962289e-06
1.872242e-11
-6.9962452e-06
3.5642708e-11
-1.7522484e-05
2.7794293e-11
-2.4588302e-05
3.4053075e-13
-2.8146899e-05
-2.7183147e-11
-2.8146901e-05
-3.5176892e-11
-2.4588305e-05
-1.8518569e-11
-1.7522487e-05
-6.9962466e-06
1.2502165e-11
-6.9962574e-06
2.3498284e-11
-1.7522495e-05
1.8945286e-11
-2.4588297e-05
3.8094521e-13
-2.814688e-05
-1.8244361e-11
-2.8146882e-05
-2.2992451e-11
-2.45883e-05
-1.2287473e-11
-1.7522498e-05
-6.9962587e-06
7.4884132e-12
-6.9962639e-06
1.5162311e-11
-1.7522501e-05
1.2115522e-11
-2.4588292e-05
4.2353737e-13
-2.8146867e-05
-1.1358257e-11
-2.8146868e-05
-1.4609985e-11
-2.4588295e-05
-7.2581827e-12
-1.7522503e-05
-6.9962652e-06
4.6978228e-12
-6.9962684e-06
8.8515803e-12
-1.7522504e-05
7.4878091e-12
-2.4588291e-05
4.4257675e-13
-2.814686e-05
-6.6835686e-12
-2.8146861e-05
-8.2840454e-12
-2.4588293e-05
-4.4655209e-12
-1.7522507e-05
-6.9962694e-06
2.2021181e-12
-6.9962696e-06
4.9450795e-12
-1.7522505e-05
3.9797278e-12
-2.4588288e-05
4.6078763e-13
-2.8146854e-05
-3.1566809e-12
-2.8146855e-05
-4.3581548e-12
-2.458829e-05
-1.9639174e-12
-1.7522508e-05
-6.9962706e-06
1.1855244e-12
-6.9962706e-06
1.8961345e-12
-1.7522506e-05
1.8450536e-12
-2.4588287e-05
4.5954954e-13
-2.8146853e-05
-1.0159163e-12
-2.8146853e-05
-1.3166445e-12
-2.4588289e-05
-9.5304816e-13
-1.7522508e-05
-6.9962714e-06
-6.7604902e-14
-6.9962695e-06
3.0697346e-13
-1.7522504e-05
1.5696333e-13
-2.4588286e-05
4.5623631e-13
-2.8146851e-05
6.58671e-13
-2.8146852e-05
2.6875254e-13
-2.4588287e-05
2.9815148e-13
-1.7522506e-05
-6.9962703e-06
-2.5768689e-13
-6.9962691e-06
-1.1212039e-12
-1.7522503e-05
-6.9562676e-13
-2.4588286e-05
4.3890352e-13
-2.8146852e-05
1.4845066e-12
-2.8146853e-05
1.6721268e-12
-2.4588287e-05
4.7682686e-13
-1.7522505e-05
-6.9962697e-06
-9.4966158e-13
-6.9962672e-06
-1.617194e-12
-1.7522501e-05
-1.4929605e-12
-2.4588284e-05
4.1968964e-13
-2.8146852e-05
2.2452594e-12
-2.8146853e-05
2.1478109e-12
-2.4588286e-05
1.1615819e-12
-1.7522502e-05
-6.9962678e-06
-7.9029227e-13
-6.9962662e-06
-2.309893e-12
-1.7522499e-05
-1.7490684e-12
-2.4588284e-05
3.9199119e-13
-2.8146854e-05
2.4528238e-12
-2.8146855e-05
2.8049979e-12
-2.4588286e-05
9.876454e-13
-1.75225e-05
-6.9962667e-06
-1.2475761e-12
-6.996264e-06
-2.3349094e-12
-1.7522496e-05
-2.1471159e-12
-2.4588283e-05
3.6334894e-13
-2.8146855e-05
2.801636e-12
-2.8146856e-05
2.8004501e-12
-2.4588284e-05
1.435001e-12
-1.7522497e-05
-6.9962645e-06
-9.5670194e-13
-6.9962629e-06
-2.7196809e-12
-1.7522494e-05
-2.1488307e-12
-2.4588283e-05
3.3108005e-13
-2.8146857e-05
2.7441348e-12
-2.8146858e-05
3.1454434e-12
-2.4588284e-05
1.1287337e-12
-1.7522495e-05
-6.9962632e-06
-1.3218622e-12
-6.9962607e-06
-2.5602451e-12
-1.7522491e-05
-2.3807104e-12
-2.4588282e-05
2.9893966e-13
-2.8146858e-05
2.9235578e-12
-2.8146859e-05
2.953635e-12
-2.4588283e-05
1.4834064e-12
-1.7522492e-05
-6.996261e-06
-9.9041942e-13
-6.9962596e-06
-2.8252554e-12
-1.7522489e-05
-2.2825738e-12
-2.4588282e-05
2.6693442e-13
-2.8146861e-05
2.7647549e-12
-2.8146861e-05
3.1797805e-12
-2.4588283e-05
1.1375375e-12
-1.7522489e-05
-6.9962598e-06
-1.3200371e-12
-6.9962573e-06
-2.6018157e-12
-1.7522486e-05
-2.448841e-12
-2.4588281e-05
2.3583728e-13
-2.8146862e-05
2.8824764e-12
-2.8146862e-05
2.9259424e-12
-2.4588281e-05
1.4575977e-12
-1.7522487e-05
-6.9962576e-06
-9.8229907e-13
-6.9962562e-06
-2.8224397e-12
-1.7522484e-05
-2.3143448e-12
-2.4588281e-05
2.0745302e-13
-2.8146864e-05
2.6922622e-12
-2.8146864e-05
3.1120657e-12
-2.4588282e-05
1.107524e-12
-1.7522484e-05
-6.9962564e-06
-1.2963101e-12
-6.996254e-06
-2.5808118e-12
-1.7522481e-05
-2.4543398e-12
-2.458828e-05
1.8026645e-13
-2.8146865e-05
2.7920186e-12
-2.8146865e-05
2.8449033e-12
-2.458828e-05
1.4137132e-12
-1.7522482e-05
-6.9962542e-06
-9.6351936e-13
-6.996253e-06
-2.7840433e-12
-1.7522479e-05
-2.3070058e-12
-2.458828e-05
1.5732996e-13
-2.8146867e-05
2.5974295e-12
-2.8146868e-05
3.0197405e-12
-2.458828e-05
1.0711774e-12
-1.7522479e-05
-6.9962531e-06
-1.2677736e-12
-6.9962508e-06
-2.5395553e-12
-1.7522476e-05
-2.4345166e-12
-2.4588278e-05
1.3538422e-13
-2.8146869e-05
2.6949076e-12
-2.8146869e-05
2.7557933e-12
-2.4588279e-05
1.3695797e-12
-1.7522477e-05
-6.996251e-06
-9.4280255e-13
-6.9962497e-06
-2.733675e-12
-1.7522474e-05
-2.2821039e-12
-2.4588279e-05
1.1844396e-13
-2.8146871e-05
2.5048324e-12
-2.8146871e-05
2.9279904e-12
-2.4588279e-05
1.037476e-12
-1.7522474e-05
-6.9962498e-06
-1.2384618e-12
-6.9962476e-06
-2.4905616e-12
-1.7522471e-05
-2.4014536e-12
-2.4588277e-05
1.0189779e-13
-2.8146872e-05
2.6043652e-12
-2.8146872e-05
2.671464e-12
-2.4588278e-05
1.3290916e-12
-1.7522472e-05
-6.9962478e-06
-9.2161017e-13
-6.9962466e-06
-2.6775684e-12
-1.7522469e-05
-2.2463187e-12
-2.4588277e-05
9.061159e-14
-2.8146874e-05
2.4206394e-12
-2.8146874e-05
2.8424625e-12
-2.4588278e-05
1.0074407e-12
-1.752247e-05
-6.9962467e-06
-1.2086577e-12
-6.9962445e-06
-2.4366737e-12
-1.7522466e-05
-2.3588878e-12
-2.4588276e-05
7.8881983e-14
-2.8146875e-05
2.5224382e-12
-2.8146875e-05
2.5934202e-12
-2.4588276e-05
1.2918721e-12
-1.7522467e-05
-6.9962447e-06
-8.9967123e-13
-6.9962435e-06
-2.616935e-12
-1.7522464e-05
-2.2019133e-12
-2.4588276e-05
7.2408896e-14
-2.8146877e-05
2.3445017e-12
-2.8146877e-05
2.7625453e-12
-2.4588277e-05
9.7999988e-13
-1.7522465e-05
-6.9962437e-06
-1.1780204e-12
-6.9962415e-06
-2.3783888e-12
-1.7522462e-05
-2.3084306e-12
-2.4588275e-05
6.455259e-14
-2.8146878e-05
2.4475772e-12
-2.8146878e-05
2.5200017e-12
-2.4588275e-05
1.256704e-12
-1.7522462e-05
-6.9962418e-06
-8.7665353e-13
-6.9962406e-06
-2.5521043e-12
-1.752246e-05
-2.1502634e-12
-2.4588275e-05
6.186923e-14
-2.814688e-05
2.2742948e-12
-2.814688e-05
2.6862696e-12
-2.4588276e-05
9.5392301e-13
-1.752246e-05
-6.9962408e-06
-1.1463882e-12
-6.9962386e-06
-2.3160515e-12
-1.7522457e-05
-2.2514285e-12
-2.4588274e-05
5.6863721e-14
-2.8146881e-05
2.3775395e-12
-2.8146881e-05
2.4492188e-12
-2.4588274e-05
1.2225488e-12
-1.7522458e-05
-6.9962389e-06
-8.5248321e-13
-6.9962377e-06
-2.4835651e-12
-1.7522455e-05
-2.0927335e-12
-2.4588274e-05
5.6977503e-14
-2.8146883e-05
2.2078432e-12
-2.8146883e-05
2.6118693e-12
-2.4588275e-05
9.2830857e-13
-1.7522456e-05
-6.9962379e-06
-1.1138393e-12
-6.9962357e-06
-2.2502535e-12
-1.7522453e-05
-2.1892821e-12
-2.4588273e-05
5.3892551e-14
-2.8146884e-05
2.3103743e-12
-2.8146884e-05
2.3795466e-12
-2.4588273e-05
1.1887303e-12
-1.7522454e-05
-6.996236e-06
-8.2728441e-13
-6.9962349e-06
-2.412027e-12
-1.7522451e-05
-2.030714e-12
-2.4588273e-05
5.5956866e-14
-2.8146886e-05
2.1434429e-12
-2.8146886e-05
2.5381293e-12
-2.4588274e-05
9.0260891e-13
-1.7522452e-05
-6.9962351e-06
-1.0805874e-12
-6.9962329e-06
-2.1817432e-12
-1.7522449e-05
-2.1233571e-12
-2.4588272e-05
5.4034137e-14
-2.8146886e-05
2.2446662e-12
-2.8146887e-05
2.3100209e-12
-2.4588272e-05
1.1548812e-12
-1.7522449e-05
-6.9962333e-06
-8.0127229e-13
-6.9962321e-06
-2.3382792e-12
-1.7522447e-05
-1.9654964e-12
-2.4588272e-05
5.7388846e-14
-2.8146888e-05
2.0799353e-12
-2.8146889e-05
2.4643497e-12
-2.4588273e-05
8.765442e-13
-1.7522448e-05
-6.9962324e-06
-1.0468892e-12
-6.9962303e-06
-2.1112857e-12
-1.7522445e-05
-2.0548687e-12
-2.4588271e-05
5.6058288e-14
-2.8146889e-05
2.1795124e-12
-2.814689e-05
2.2401355e-12
-2.4588271e-05
1.1208496e-12
-1.7522445e-05
-6.9962307e-06
-7.7467922e-13
-6.9962295e-06
-2.2630746e-12
-1.7522443e-05
-1.8981897e-12
-2.4588271e-05
6.0222622e-14
-2.8146891e-05
2.0166289e-12
-2.8146891e-05
2.3902183e-12
-2.4588272e-05
8.5001323e-13
-1.7522444e-05
-6.9962298e-06
-1.0129923e-12
-6.9962277e-06
-2.0395792e-12
-1.7522441e-05
-1.984831e-12
-2.458827e-05
5.9082307e-14
-2.8146892e-05
2.1144182e-12
-2.8146892e-05
2.1697115e-12
-2.4588271e-05
1.0866201e-12
-1.7522442e-05
-6.9962281e-06
-7.4772083e-13
-6.996227e-06
-2.1870775e-12
-1.7522439e-05
-1.8296989e-12
-2.458827e-05
6.3724696e-14
-2.8146894e-05
1.9531843e-12
-2.8146894e-05
2.3156871e-12
-2.4588271e-05
8.230264e-13
-1.752244e-05
-6.9962273e-06
-9.79115e-13
-6.9962252e-06
-1.9672275e-12
-1.7522437e-05
-1.9140604e-12
-2.4588269e-05
6.2506005e-14
-2.8146894e-05
2.0491834e-12
-2.8146895e-05
2.0987839e-12
-2.458827e-05
1.0522587e-12
-1.7522438e-05
-6.9962257e-06
-7.2058567e-13
-6.9962245e-06
-2.1108537e-12
-1.7522435e-05
-1.7607469e-12
-2.4588269e-05
6.7406577e-14
-2.8146896e-05
1.8895057e-12
-2.8146897e-05
2.240874e-12
-2.458827e-05
7.9565915e-13
-1.7522436e-05
-6.9962249e-06
-9.4544412e-13
-6.9962228e-06
-1.894743e-12
-1.7522433e-05
-1.8432069e-12
-2.4588268e-05
6.5937193e-14
-2.8146897e-05
1.9838023e-12
-2.8146897e-05
2.0275183e-12
-2.4588269e-05
1.0178743e-12
-1.7522434e-05
-6.9962233e-06
-6.9343623e-13
-6.9962222e-06
-2.0348821e-12
-1.7522432e-05
-1.6919104e-12
-2.4588268e-05
7.0953898e-14
-2.8146899e-05
1.8256516e-12
-2.8146899e-05
2.1659928e-12
-2.4588269e-05
7.6802123e-13
-1.7522433e-05
-6.9962226e-06
-9.1213805e-13
-6.9962205e-06
-1.8225609e-12
-1.752243e-05
-1.7727923e-12
-2.4588267e-05
6.9127482e-14
-2.8146899e-05
1.9183868e-12
-2.81469e-05
1.9561502e-12
-2.4588268e-05
9.8359575e-13
-1.7522431e-05
-6.996221e-06
-6.6641305e-13
-6.9962199e-06
-1.9595697e-12
-1.7522428e-05
-1.6236561e-12
-2.4588267e-05
7.4169502e-14
-2.8146901e-05
1.7617697e-12
-2.8146902e-05
2.0913017e-12
-2.4588269e-05
7.4023771e-13
-1.7522429e-05
-6.9962203e-06
-8.7933186e-13
-6.9962183e-06
-1.7510539e-12
-1.7522426e-05
-1.7032408e-12
-2.4588266e-05
7.1922474e-14
-2.8146902e-05
1.8531125e-12
-2.8146902e-05
1.8849449e-12
-2.4588267e-05
9.4955566e-13
-1.7522427e-05
-6.9962188e-06
-6.3963898e-13
-6.9962178e-06
-1.8852649e-12
-1.7522425e-05
-1.5563661e-12
-2.4588267e-05
7.6931375e-14
-2.8146904e-05
1.6980516e-12
-2.8146904e-05
2.0170731e-12
-2.4588268e-05
7.1243599e-13
-1.7522426e-05
-6.9962182e-06
-8.4714111e-13
-6.9962162e-06
-1.6805425e-12
-1.7522423e-05
-1.6349018e-12
-2.4588266e-05
7.4228165e-14
-2.8146904e-05
1.7881813e-12
-2.8146905e-05
1.8141715e-12
-2.4588267e-05
9.1588192e-13
-1.7522424e-05
-6.9962167e-06
-6.1322076e-13
-6.9962157e-06
-1.8122658e-12
-1.7522422e-05
-1.4903571e-12
-2.4588266e-05
7.9166503e-14
-2.8146906e-05
1.6347038e-12
-2.8146906e-05
1.9435721e-12
-2.4588267e-05
6.8473889e-13
-1.7522423e-05
-6.9962161e-06
-8.1566268e-13
-6.9962142e-06
-1.6113017e-12
-1.752242e-05
-1.5680639e-12
-2.4588265e-05
7.5989759e-14
-2.8146906e-05
1.7237997e-12
-2.8146907e-05
1.7440868e-12
-2.4588266e-05
8.8269195e-13
-1.7522421e-05
-6.9962147e-06
-5.8725086e-13
-6.9962137e-06
-1.7408243e-12
-1.7522419e-05
-1.4258898e-12
-2.4588265e-05
8.083455e-14
-2.8146908e-05
1.5719303e-12
-2.8146908e-05
1.871045e-12
-2.4588267e-05
6.5726002e-13
-1.752242e-05
-6.9962141e-06
-7.8497736e-13
-6.9962122e-06
-1.5435629e-12
-1.7522417e-05
-1.5029613e-12
-2.4588264e-05
7.7180376e-14
-2.8146908e-05
1.6601656e-12
-2.8146909e-05
1.6749266e-12
-2.4588265e-05
8.5008992e-13
-1.7522418e-05
-6.9962128e-06
-5.6180714e-13
-6.9962118e-06
-1.6711492e-12
-1.7522416e-05
-1.3631735e-12
-2.4588265e-05
8.1919016e-14
-2.814691e-05
1.5099234e-12
-2.8146911e-05
1.7997129e-12
-2.4588266e-05
6.301015e-13
-1.7522417e-05
-6.9962123e-06
-7.5514933e-13
-6.9962104e-06
-1.477516e-12
-1.7522414e-05
-1.4397788e-12
-2.4588264e-05
7.7794107e-14
-2.8146911e-05
1.5974616e-12
-2.8146911e-05
1.6069012e-12
-2.4588265e-05
8.1816584e-13
-1.7522415e-05
-6.9962109e-06
-5.3695375e-13
-6.99621e-06
-1.6034065e-12
-1.7522413e-05
-1.3023703e-12
-2.4588264e-05
8.2422884e-14
-2.8146912e-05
1.4488588e-12
-2.8146913e-05
1.7297691e-12
-2.4588265e-05
6.0335337e-13
-1.7522414e-05
-6.9962104e-06
-7.2622714e-13
-6.9962086e-06
-1.4133103e-12
-1.7522412e-05
-1.378654e-12
-2.4588263e-05
7.7842568e-14
-2.8146913e-05
1.535852e-12
-2.8146913e-05
1.5401931e-12
-2.4588264e-05
7.8699516e-13
-1.7522413e-05
-6.9962092e-06
-5.1274059e-13
-6.9962083e-06
-1.5377213e-12
-1.7522411e-05
-1.2435977e-12
-2.4588264e-05
8.2365209e-14
-2.8146914e-05
1.3888934e-12
-2.8146915e-05
1.6613778e-12
-2.4588265e-05
5.7709232e-13
-1.7522412e-05
-6.9962087e-06
-6.9824408e-13
-6.996207e-06
-1.3510558e-12
-1.7522409e-05
-1.319681e-12
-2.4588263e-05
7.7352099e-14
-2.8146914e-05
1.4754813e-12
-2.8146915e-05
1.474957e-12
-2.4588264e-05
7.5663905e-13
-1.752241e-05
-6.9962075e-06
-4.892044e-13
-6.9962067e-06
-1.4741802e-12
-1.7522408e-05
-1.1869305e-12
-2.4588263e-05
8.1778821e-14
-2.8146916e-05
1.3301643e-12
-2.8146916e-05
1.5946748e-12
-2.4588264e-05
5.513837e-13
-1.7522409e-05
-6.9962071e-06
-6.7121992e-13
-6.9962054e-06
-1.2908263e-12
-1.7522407e-05
-1.2629129e-12
-2.4588262e-05
7.6361801e-14
-2.8146916e-05
1.4164741e-12
-2.8146917e-05
1.4113201e-12
-2.4588263e-05
7.2714563e-13
-1.7522408e-05
-6.9962058e-06
-4.6636971e-13
-6.9962051e-06
-1.4128341e-12
-1.7522406e-05
-1.1324062e-12
-2.4588263e-05
8.0707929e-14
-2.8146918e-05
1.2727887e-12
-2.8146918e-05
1.5297687e-12
-2.4588264e-05
5.2627976e-13
-1.7522407e-05
-6.9962055e-06
-6.4516179e-13
-6.9962038e-06
-1.2326622e-12
-1.7522404e-05
-1.2083667e-12
-2.4588262e-05
7.4920469e-14
-2.8146918e-05
1.3589348e-12
-2.8146919e-05
1.3493838e-12
-2.4588263e-05
6.9854978e-13
-1.7522405e-05
-6.9962043e-06
-4.4425018e-13
-6.9962036e-06
-1.3537025e-12
-1.7522404e-05
-1.0800284e-12
-2.4588263e-05
7.920536e-14
-2.814692e-05
1.2168646e-12
-2.814692e-05
1.466742e-12
-2.4588264e-05
5.0182215e-13
-1.7522405e-05
-6.996204e-06
-6.2006618e-13
-6.9962024e-06
-1.1765752e-12
-1.7522402e-05
-1.1560291e-12
-2.4588262e-05
7.3084359e-14
-2.814692e-05
1.3029486e-12
-2.814692e-05
1.2892242e-12
-2.4588263e-05
6.7087535e-13
-1.7522403e-05
-6.9962028e-06
-4.2284966e-13
-6.9962022e-06
-1.2967777e-12
-1.7522402e-05
-1.0297734e-12
-2.4588262e-05
7.7329914e-14
-2.8146921e-05
1.1624705e-12
-2.8146922e-05
1.405653e-12
-2.4588263e-05
4.7804165e-13
-1.7522403e-05
-6.9962025e-06
-5.9592001e-13
-6.996201e-06
-1.1225522e-12
-1.75224e-05
-1.1058606e-12
-2.4588261e-05
7.0913928e-14
-2.8146922e-05
1.2485815e-12
-2.8146922e-05
1.2308955e-12
-2.4588262e-05
6.4413533e-13
-1.7522401e-05
-6.9962014e-06
-4.0216405e-13
-6.9962008e-06
-1.2420294e-12
-1.75224e-05
-9.8159414e-13
-2.4588262e-05
7.5143328e-14
-2.8146923e-05
1.1096669e-12
-2.8146923e-05
1.3465384e-12
-2.4588263e-05
4.5495987e-13
-1.75224e-05
-6.9962012e-06
-5.7270346e-13
-6.9961997e-06
-1.07056e-12
-1.7522398e-05
-1.0578017e-12
-2.4588261e-05
6.8471474e-14
-2.8146923e-05
1.195882e-12
-2.8146924e-05
1.1744306e-12
-2.4588262e-05
6.1833387e-13
-1.7522399e-05
-6.9962001e-06
-3.8218288e-13
-6.9961995e-06
-1.189409e-12
-1.7522398e-05
-9.3542616e-13
-2.4588262e-05
7.2708068e-14
-2.8146925e-05
1.0584965e-12
-2.8146925e-05
1.2894153e-12
-2.4588262e-05
4.3258977e-13
-1.7522399e-05
-6.9961999e-06
-5.5039038e-13
-6.9961984e-06
-1.0205495e-12
-1.7522396e-05
-1.0117777e-12
-2.4588261e-05
6.5818327e-14
-2.8146925e-05
1.1448813e-12
-2.8146925e-05
1.1198442e-12
-2.4588262e-05
5.9346693e-13
-1.7522397e-05
-6.9961988e-06
-3.6289067e-13
-6.9961983e-06
-1.1388546e-12
-1.7522396e-05
-8.9119259e-13
-2.4588261e-05
7.0084659e-14
-2.8146926e-05
1.0089862e-12
-2.8146926e-05
1.2342832e-12
-2.4588262e-05
4.1093683e-13
-1.7522397e-05
-6.9961986e-06
-5.2895098e-13
-6.9961972e-06
-9.7246006e-13
-1.7522395e-05
-9.6770369e-13
-2.458826e-05
6.3013633e-14
-2.8146926e-05
1.0955956e-12
-2.8146927e-05
1.0671349e-12
-2.4588261e-05
5.6952358e-13
-1.7522395e-05
-6.9961976e-06
-3.4426813e-13
-6.9961971e-06
-1.0902941e-12
-1.7522394e-05
-8.4880801e-13
-2.4588261e-05
6.7330339e-14
-2.8146928e-05
9.6114803e-13
-2.8146928e-05
1.1811267e-12
-2.4588262e-05
3.9000033e-13
-1.7522395e-05
-6.9961974e-06
-5.0835201e-13
-6.9961961e-06
-9.2622286e-13
-1.7522393e-05
-9.2548802e-13
-2.458826e-05
6.0111916e-14
-2.8146928e-05
1.0480269e-12
-2.8146928e-05
1.0162876e-12
-2.4588261e-05
5.4648753e-13
-1.7522394e-05
-6.9961965e-06
-3.2629373e-13
-6.996196e-06
-1.0436492e-12
-1.7522393e-05
-8.0818243e-13
-2.4588261e-05
6.4497492e-14
-2.8146929e-05
9.1498077e-13
-2.8146929e-05
1.1299183e-12
-2.4588262e-05
3.6977429e-13
-1.7522393e-05
-6.9961963e-06
-4.8855951e-13
-6.996195e-06
-8.8176404e-13
-1.7522391e-05
-8.8503657e-13
-2.458826e-05
5.7162642e-14
-2.8146929e-05
1.0021653e-12
-2.8146929e-05
9.6727567e-13
-2.4588261e-05
5.2433785e-13
-1.7522392e-05
-6.9961954e-06
-3.0894429e-13
-6.996195e-06
-9.9883822e-13
-1.7522391e-05
-7.6922489e-13
-2.4588261e-05
6.1633168e-14
-2.814693e-05
8.7047201e-13
-2.8146931e-05
1.0806201e-12
-2.4588261e-05
3.5024833e-13
-1.7522392e-05
-6.9961952e-06
-4.6953799e-13
-6.996194e-06
-8.3900717e-13
-1.752239e-05
-8.4625508e-13
-2.458826e-05
5.4209654e-14
-2.814693e-05
9.5799018e-13
-2.8146931e-05
9.2006354e-13
-2.458826e-05
5.0305009e-13
-1.7522391e-05
-6.9961943e-06
-2.9219611e-13
-6.996194e-06
-9.5577799e-13
-1.752239e-05
-7.3184493e-13
-2.458826e-05
5.877819e-14
-2.8146932e-05
8.275997e-13
-2.8146932e-05
1.0331864e-12
-2.4588261e-05
3.3140878e-13
-1.752239e-05
-6.9961942e-06
-4.5125259e-13
-6.996193e-06
-7.9787598e-13
-1.7522388e-05
-8.0905138e-13
-2.458826e-05
5.1290325e-14
-2.8146932e-05
9.1547271e-13
-2.8146932e-05
8.7460808e-13
-2.458826e-05
4.8259757e-13
-1.7522389e-05
-6.9961933e-06
-2.7602566e-13
-6.996193e-06
-9.1438689e-13
-1.7522388e-05
-6.9595534e-13
-2.458826e-05
5.5967331e-14
-2.8146933e-05
7.8633392e-13
-2.8146933e-05
9.8756539e-13
-2.4588261e-05
3.1323937e-13
-1.7522389e-05
-6.9961932e-06
-4.3366949e-13
-6.9961921e-06
-7.5829591e-13
-1.7522387e-05
-7.7333712e-13
-2.4588259e-05
4.8436079e-14
-2.8146933e-05
8.7457695e-13
-2.8146933e-05
8.3086175e-13
-2.458826e-05
4.6295165e-13
-1.7522388e-05
-6.9961924e-06
-2.6040997e-13
-6.9961921e-06
-8.745856e-13
-1.7522387e-05
-6.6147332e-13
-2.458826e-05
5.3229154e-14
-2.8146934e-05
7.4663895e-13
-2.8146934e-05
9.4370167e-13
-2.4588261e-05
2.9572218e-13
-1.7522387e-05
-6.9961923e-06
-4.1675541e-13
-6.9961912e-06
-7.2019497e-13
-1.7522386e-05
-7.3902911e-13
-2.4588259e-05
4.567209e-14
-2.8146934e-05
8.3526222e-13
-2.8146934e-05
7.8877314e-13
-2.458826e-05
4.4408274e-13
-1.7522386e-05
-6.9961915e-06
-2.4532699e-13
-6.9961912e-06
-8.3629832e-13
-1.7522386e-05
-6.2832149e-13
-2.458826e-05
5.058654e-14
-2.8146935e-05
7.0847442e-13
-2.8146935e-05
9.015371e-13
-2.458826e-05
2.7883838e-13
-1.7522386e-05
-6.9961914e-06
-4.0047943e-13
-6.9961903e-06
-6.8350516e-13
-1.7522385e-05
-7.0605002e-13
-2.4588259e-05
4.3018567e-14
-2.8146935e-05
7.9748362e-13
-2.8146935e-05
7.4828895e-13
-2.458826e-05
4.2596151e-13
-1.7522385e-05
-6.9961906e-06
-2.3075633e-13
-6.9961904e-06
-7.9945373e-13
-1.7522384e-05
-5.9642836e-13
-2.458826e-05
4.8057224e-14
-2.8146936e-05
6.7179661e-13
-2.8146936e-05
8.6101267e-13
-2.458826e-05
2.6256871e-13
-1.7522385e-05
-6.9961906e-06
-3.8481247e-13
-6.9961895e-06
-6.4816293e-13
-1.7522383e-05
-6.7432872e-13
-2.4588259e-05
4.0490137e-14
-2.8146936e-05
7.6119426e-13
-2.8146936e-05
7.0935556e-13
-2.4588259e-05
4.0855859e-13
-1.7522384e-05
-6.9961898e-06
-2.1667894e-13
-6.9961896e-06
-7.6398558e-13
-1.7522383e-05
-5.6572889e-13
-2.458826e-05
4.5653714e-14
-2.8146937e-05
6.3656021e-13
-2.8146937e-05
8.2206973e-13
-2.458826e-05
2.4689376e-13
-1.7522384e-05
-6.9961898e-06
-3.6972711e-13
-6.9961888e-06
-6.1410983e-13
-1.7522382e-05
-6.4380066e-13
-2.4588259e-05
3.8096919e-14
-2.8146937e-05
7.2634594e-13
-2.8146937e-05
6.7191973e-13
-2.4588259e-05
3.9184507e-13
-1.7522383e-05
-6.996189e-06
-2.0307747e-13
-6.9961889e-06
-7.2983273e-13
-1.7522382e-05
-5.3616463e-13
-2.4588259e-05
4.338467e-14
-2.8146938e-05
6.0271932e-13
-2.8146938e-05
7.8465042e-13
-2.458826e-05
2.3179459e-13
-1.7522383e-05
-6.9961891e-06
-3.5519822e-13
-6.996188e-06
-5.8129256e-13
-1.7522381e-05
-6.1440792e-13
-2.4588259e-05
3.5845594e-14
-2.8146938e-05
6.9289049e-13
-2.8146938e-05
6.3592936e-13
-2.4588259e-05
3.7579341e-13
-1.7522382e-05
-6.9961883e-06
-1.899362e-13
-6.9961882e-06
-6.9693995e-13
-1.7522381e-05
-5.0768331e-13
-2.4588259e-05
4.1255211e-14
-2.8146939e-05
5.7022795e-13
-2.8146939e-05
7.4869902e-13
-2.458826e-05
2.1725304e-13
-1.7522382e-05
-6.9961883e-06
-3.4120296e-13
-6.9961874e-06
-5.4966306e-13
-1.752238e-05
-5.8609892e-13
-2.4588259e-05
3.3739195e-14
-2.8146939e-05
6.6078035e-13
-2.8146939e-05
6.0133465e-13
-2.4588259e-05
3.6037714e-13
-1.7522381e-05
-6.9961876e-06
-1.7724151e-13
-6.9961875e-06
-6.6525683e-13
-1.752238e-05
-4.8023874e-13
-2.4588259e-05
3.9267214e-14
-2.814694e-05
5.3904139e-13
-2.814694e-05
7.1416253e-13
-2.458826e-05
2.0325202e-13
-1.7522381e-05
-6.9961877e-06
-3.2772062e-13
-6.9961867e-06
-5.1917821e-13
-1.7522379e-05
-5.5882799e-13
-2.4588258e-05
3.1777999e-14
-2.814694e-05
6.2996959e-13
-2.814694e-05
5.6808855e-13
-2.4588259e-05
3.4557156e-13
-1.752238e-05
-6.9961869e-06
-1.6498116e-13
-6.9961869e-06
-6.3473857e-13
-1.7522379e-05
-4.5379088e-13
-2.4588259e-05
3.7420071e-14
-2.8146941e-05
5.0911669e-13
-2.8146941e-05
6.8099106e-13
-2.458826e-05
1.8977542e-13
-1.752238e-05
-6.996187e-06
-3.1473239e-13
-6.9961861e-06
-4.898003e-13
-1.7522378e-05
-5.3255561e-13
-2.4588258e-05
2.9960333e-14
-2.8146941e-05
6.0041456e-13
-2.8146941e-05
5.3614704e-13
-2.4588259e-05
3.3135318e-13
-1.7522379e-05
-6.9961863e-06
-1.5314501e-13
-6.9961863e-06
-6.0534541e-13
-1.7522378e-05
-4.2830508e-13
-2.4588259e-05
3.5711407e-14
-2.8146942e-05
4.8041348e-13
-2.8146942e-05
6.4913791e-13
-2.4588259e-05
1.7680871e-13
-1.7522379e-05
-6.9961864e-06
-3.0222179e-13
-6.9961855e-06
-4.6149609e-13
-1.7522378e-05
-5.0724738e-13
-2.4588258e-05
2.8282608e-14
-2.8146941e-05
5.7207387e-13
-2.8146942e-05
5.0546974e-13
-2.4588259e-05
3.1770093e-13
-1.7522378e-05
-6.9961857e-06
-1.4172416e-13
-6.9961857e-06
-5.7704261e-13
-1.7522378e-05
-4.0375138e-13
-2.4588259e-05
3.4137408e-14
-2.8146942e-05
4.5289321e-13
-2.8146943e-05
6.1856069e-13
-2.4588259e-05
1.6433878e-13
-1.7522378e-05
-6.9961858e-06
-2.901738e-13
-6.9961849e-06
-4.342373e-13
-1.7522377e-05
-4.8287353e-13
-2.4588258e-05
2.6740219e-14
-2.8146942e-05
5.4490915e-13
-2.8146942e-05
4.7601977e-13
-2.4588259e-05
3.0459494e-13
-1.7522377e-05
-6.9961852e-06
-1.307116e-13
-6.9961852e-06
-5.497999e-13
-1.7522377e-05
-3.8010474e-13
-2.4588259e-05
3.2693062e-14
-2.8146943e-05
4.2652133e-13
-2.8146943e-05
5.8922046e-13
-2.4588259e-05
1.523538e-13
-1.7522377e-05
-6.9961853e-06
-2.785756e-13
-6.9961844e-06
-4.0799984e-13
-1.7522376e-05
-4.5940942e-13
-2.4588258e-05
2.5327542e-14
-2.8146943e-05
5.1888547e-13
-2.8146943e-05
4.4776395e-13
-2.4588258e-05
2.9201741e-13
-1.7522376e-05
-6.9961846e-06
-1.2010145e-13
-6.9961847e-06
-5.2359151e-13
-1.7522376e-05
-3.5734478e-13
-2.4588259e-05
3.1372644e-14
-2.8146944e-05
4.0126602e-13
-2.8146944e-05