/*--------------------------------*- C++ -*----------------------------------*\
| =========                 |                                                 |
| \\      /  F ield         | OpenFOAM: The Open Source CFD Toolbox           |
|  \\    /   O peration     | Version:  5.x                                   |
|   \\  /    A nd           | Web:      www.OpenFOAM.org                      |
|    \\/     M anipulation  |                                                 |
\*---------------------------------------------------------------------------*/
FoamFile
{
    version     2.0;
    format      ascii;
    class       volSymmTensorField;
    location    "2";
    object      sigma;
}
// * * * * * * * * * * * * * * * * * * * * * * * * * * * * * * * * * * * * * //

dimensions      [0 2 -2 0 0 0 0];

internalField   nonuniform List<symmTensor> 
1920
(
(0.00086234357 0.0072098002 0 -0.0048455077 0 0)
(-0.00024849188 0.0023466532 0 0.00094106404 0 0)
(-0.00068663619 0.001817426 0 0.00047702716 0 0)
(-0.00025676573 0.00061682027 0 0.00029633078 0 0)
(-0.00025674931 -0.00061682713 0 0.00029631484 0 0)
(-0.0006866422 -0.0018174181 0 0.00047703363 0 0)
(-0.00024849335 -0.0023466534 0 0.00094106649 0 0)
(0.0008623427 -0.0072098001 0 -0.0048455055 0 0)
(0.0027741574 0.0044776877 0 -0.0018611025 0 0)
(0.00018148194 0.0009153917 0 0.00040540202 0 0)
(-0.0017088529 9.3324204e-05 0 0.0014121905 0 0)
(-0.0017136342 9.0207422e-05 0 0.0015421463 0 0)
(-0.0017136259 -9.021521e-05 0 0.001542134 0 0)
(-0.0017088671 -9.3258265e-05 0 0.0014122064 0 0)
(0.000181484 -0.00091538664 0 0.00040539572 0 0)
(0.002774157 -0.0044776899 0 -0.0018611022 0 0)
(0.00208345 0.0039544353 0 -0.0028186082 0 0)
(0.00061134528 0.00031245363 0 -0.00038563829 0 0)
(-0.0012802143 8.2048439e-05 0 0.0011254948 0 0)
(-0.0015273577 2.4521201e-05 0 0.0014498404 0 0)
(-0.001527365 -2.4523913e-05 0 0.0014498528 0 0)
(-0.0012802072 -8.2122012e-05 0 0.0011254829 0 0)
(0.00061134816 -0.00031245719 0 -0.00038563855 0 0)
(0.0020834503 -0.003954434 0 -0.0028186098 0 0)
(0.0016028883 0.0036971698 0 -0.0023156766 0 0)
(0.00064349416 0.00069440588 0 -0.00055168174 0 0)
(-0.00088402678 9.0815561e-05 0 0.00082934596 0 0)
(-0.0013447792 -9.7688176e-06 0 0.0013353601 0 0)
(-0.0013447639 9.761404e-06 0 0.0013353437 0 0)
(-0.00088405979 -9.0808373e-05 0 0.0008293792 0 0)
(0.00064349715 -0.00069440511 0 -0.00055168486 0 0)
(0.0016028877 -0.0036971686 0 -0.0023156753 0 0)
(0.001220499 0.0035489399 0 -0.0017217514 0 0)
(0.00055848288 0.0010006837 0 -0.00053874799 0 0)
(-0.00055219125 0.00036823683 0 0.00051271583 0 0)
(-0.0011844248 3.5935829e-05 0 0.0011698642 0 0)
(-0.001184467 -3.5942284e-05 0 0.0011699087 0 0)
(-0.00055210689 -0.00036827524 0 0.0005126338 0 0)
(0.00055849292 -0.0010006948 0 -0.00053875851 0 0)
(0.0012205084 -0.0035489409 0 -0.0017217619 0 0)
(0.00081366799 0.0033839453 0 -0.0011976924 0 0)
(0.00045796645 0.0012966385 0 -0.00048534477 0 0)
(-0.00054678549 0.00038953903 0 0.00051257148 0 0)
(-0.00079309483 0.0001231346 0 0.00078231678 0 0)
(-0.00079308589 -0.00012314341 0 0.00078230503 0 0)
(-0.00054677916 -0.00038955477 0 0.0005125683 0 0)
(0.00045797959 -0.0012966279 0 -0.00048535772 0 0)
(0.00081367061 -0.0033839421 0 -0.001197694 0 0)
(0.00062445664 0.0033028363 0 -0.00096597197 0 0)
(0.00033748344 0.0016185731 0 -0.00040245333 0 0)
(-0.00026445794 0.00071167857 0 0.00023485966 0 0)
(-0.00063316742 0.0001799375 0 0.0006281551 0 0)
(-0.00063314051 -0.00017995299 0 0.0006281294 0 0)
(-0.00026445094 -0.00071167073 0 0.00023485147 0 0)
(0.00033749505 -0.0016185715 0 -0.00040246436 0 0)
(0.00062445922 -0.0033028283 0 -0.0009659745 0 0)
(0.00041901435 0.0032215027 0 -0.00073259766 0 0)
(0.00027046687 0.0017520582 0 -0.0003560492 0 0)
(-0.0001814283 0.00086042186 0 0.00015095052 0 0)
(-0.00047697088 0.00023552398 0 0.0004751335 0 0)
(-0.00047697436 -0.00023552983 0 0.00047513596 0 0)
(-0.00018142666 -0.00086040998 0 0.00015094922 0 0)
(0.00027047674 -0.0017520563 0 -0.00035605977 0 0)
(0.00041902027 -0.0032214962 0 -0.00073260297 0 0)
(0.00029580308 0.003174503 0 -0.00059265124 0 0)
(0.00018816456 0.0019096433 0 -0.00029119052 0 0)
(-0.00012015977 0.00098040484 0 8.6268853e-05 0 0)
(-0.00034261346 0.00028683326 0 0.00034145141 0 0)
(-0.00034261619 -0.00028683955 0 0.00034145544 0 0)
(-0.0001201428 -0.00098041338 0 8.6251705e-05 0 0)
(0.00018818083 -0.001909635 0 -0.00029120727 0 0)
(0.00029580817 -0.0031744911 0 -0.00059265565 0 0)
(0.00019932875 0.003139862 0 -0.00048577648 0 0)
(0.00013796346 0.001994857 0 -0.00025257536 0 0)
(-7.6761537e-05 0.0010777042 0 3.913696e-05 0 0)
(-0.00023699713 0.00032970291 0 0.00023539961 0 0)
(-0.00023695946 -0.00032972292 0 0.00023536091 0 0)
(-7.6752362e-05 -0.0010777051 0 3.912789e-05 0 0)
(0.00013797256 -0.0019948508 0 -0.00025258413 0 0)
(0.00019933509 -0.0031398503 0 -0.00048578222 0 0)
(0.00013092359 0.0031165571 0 -0.0004112004 0 0)
(9.8528908e-05 0.0020584695 0 -0.00022140999 0 0)
(-4.7714476e-05 0.0011515708 0 6.7602331e-06 0 0)
(-0.00016045259 0.00036239834 0 0.00015806976 0 0)
(-0.0001605319 -0.0003623738 0 0.00015815004 0 0)
(-4.7706409e-05 -0.0011515702 0 6.7519183e-06 0 0)
(9.8536377e-05 -0.0020584656 0 -0.00022141789 0 0)
(0.00013092848 -0.0031165412 0 -0.00041120397 0 0)
(8.4131601e-05 0.0031012439 0 -0.00036080314 0 0)
(6.7881295e-05 0.0021053708 0 -0.00019645244 0 0)
(-2.9068272e-05 0.0012048255 0 -1.4555045e-05 0 0)
(-0.00010724648 0.00038609751 0 0.00010405438 0 0)
(-0.00010709694 -0.00038616589 0 0.00010390363 0 0)
(-2.9060305e-05 -0.001204833 0 -1.4563183e-05 0 0)
(6.789154e-05 -0.0021053555 0 -0.00019646214 0 0)
(8.4137393e-05 -0.0031012285 0 -0.0003608083 0 0)
(5.3416745e-05 0.0030915288 0 -0.0003280064 0 0)
(4.5666248e-05 0.002137611 0 -0.00017800018 0 0)
(-1.7371222e-05 0.001242086 0 -2.8267482e-05 0 0)
(-7.022804e-05 0.00040316097 0 6.6351975e-05 0 0)
(-7.0436665e-05 -0.00040308196 0 6.6561161e-05 0 0)
(-1.7370782e-05 -0.0012420796 0 -2.8268048e-05 0 0)
(4.5667656e-05 -0.0021376066 0 -0.00017800179 0 0)
(5.3417279e-05 -0.0030915097 0 -0.00032800527 0 0)
(3.3290537e-05 0.0030853552 0 -0.00030668399 0 0)
(3.0129214e-05 0.0021590579 0 -0.00016490819 0 0)
(-1.0110566e-05 0.0012677253 0 -3.697106e-05 0 0)
(-4.5793307e-05 0.00041483085 0 4.1388408e-05 0 0)
(-4.5595321e-05 -0.00041492769 0 4.1189622e-05 0 0)
(-1.0106378e-05 -0.0012677377 0 -3.6975535e-05 0 0)
(3.0134126e-05 -0.002159044 0 -0.00016491242 0 0)
(3.3295386e-05 -0.0030853382 0 -0.00030668805 0 0)
(2.0335222e-05 0.0030815031 0 -0.00029305925 0 0)
(1.948716e-05 0.0021730996 0 -0.00015581916 0 0)
(-5.706293e-06 0.0012850064 0 -4.2376697e-05 0 0)
(-2.908614e-05 0.00042300311 0 2.4295465e-05 0 0)
(-2.9249332e-05 -0.00042293946 0 2.4459393e-05 0 0)
(-5.7105613e-06 -0.0012849995 0 -4.2372468e-05 0 0)
(1.9483824e-05 -0.0021730954 0 -0.00015581585 0 0)
(2.0333846e-05 -0.0030814836 0 -0.00029305622 0 0)
(1.2134153e-05 0.0030791431 0 -0.00028449376 0 0)
(1.2360625e-05 0.0021820969 0 -0.00014966602 0 0)
(-3.0809004e-06 0.0012964699 0 -4.567303e-05 0 0)
(-1.826459e-05 0.0004284371 0 1.3206196e-05 0 0)
(-1.8084485e-05 -0.00042853417 0 1.3024903e-05 0 0)
(-3.080688e-06 -0.001296484 0 -4.5673576e-05 0 0)
(1.2361476e-05 -0.002182085 0 -0.00014966616 0 0)
(1.213553e-05 -0.0030791256 0 -0.00028449421 0 0)
(7.0381618e-06 0.0030777335 0 -0.00027921091 0 0)
(7.6780633e-06 0.0021877675 0 -0.00014557997 0 0)
(-1.5612274e-06 0.0013039392 0 -4.7631892e-05 0 0)
(-1.1062697e-05 0.00043212951 0 5.8239557e-06 0 0)
(-1.1258335e-05 -0.00043205043 0 6.0205057e-06 0 0)
(-1.5674416e-06 -0.0013039351 0 -4.7625722e-05 0 0)
(7.6719181e-06 -0.002187764 0 -0.00014557372 0 0)
(7.0354911e-06 -0.0030777153 0 -0.00027920679 0 0)
(3.9318135e-06 0.0030769146 0 -0.00027601549 0 0)
(4.6517349e-06 0.0021912767 0 -0.00014291269 0 0)
(-7.1081839e-07 0.0013087099 0 -4.8762353e-05 0 0)
(-6.740226e-06 0.00043440837 0 1.3851092e-06 0 0)
(-6.565281e-06 -0.00043450748 0 1.2090461e-06 0 0)
(-7.133135e-07 -0.0013087234 0 -4.8760184e-05 0 0)
(4.6497831e-06 -0.0021912676 0 -0.00014291016 0 0)
(3.9310244e-06 -0.0030768981 0 -0.00027601374 0 0)
(2.0921467e-06 0.003076462 0 -0.00027414044 0 0)
(2.7439411e-06 0.0021933932 0 -0.00014121651 0 0)
(-2.539084e-07 0.0013117158 0 -4.9392783e-05 0 0)
(-3.6875677e-06 0.0004360381 0 -1.744078e-06 0 0)
(-3.846266e-06 -0.00043597447 0 -1.584687e-06 0 0)
(-2.6013502e-07 -0.0013117152 0 -4.9386664e-05 0 0)
(2.7371283e-06 -0.0021933902 0 -0.00014120951 0 0)
(2.0889348e-06 -0.0030764458 0 -0.00027413604 0 0)
(1.0256945e-06 0.0030762239 0 -0.00027306562 0 0)
(1.5525492e-06 0.0021946522 0 -0.00014014521 0 0)
(-2.8402381e-08 0.0013135487 0 -4.9723941e-05 0 0)
(-2.0663091e-06 0.00043693829 0 -3.4113307e-06 0 0)
(-1.9706035e-06 -0.0004370007 0 -3.5076596e-06 0 0)
(-3.2192615e-08 -0.00131356 0 -4.9720439e-05 0 0)
(1.5491778e-06 -0.0021946456 0 -0.00014014142 0 0)
(1.0238337e-06 -0.0030762091 0 -0.00027306286 0 0)
(4.3758289e-07 0.0030761132 0 -0.00027248159 0 0)
(8.4104271e-07 0.0021953625 0 -0.0001395012 0 0)
(7.3624949e-08 0.0013146605 0 -4.9886899e-05 0 0)
(-9.9125445e-07 0.00043754452 0 -4.5144502e-06 0 0)
(-1.0759411e-06 -0.00043751497 0 -4.4291828e-06 0 0)
(6.8272377e-08 -0.0013146626 0 -4.9881718e-05 0 0)
(8.3484582e-07 -0.0021953596 0 -0.00013949478 0 0)
(4.3452599e-07 -0.0030760992 0 -0.00027247761 0 0)
(1.2044734e-07 0.0030760705 0 -0.0002721736 0 0)
(4.1356834e-07 0.0021957623 0 -0.00013910788 0 0)
(1.0562764e-07 0.0013152931 0 -4.9954107e-05 0 0)
(-5.1237297e-07 0.00043783205 0 -5.0079964e-06 0 0)
(-3.7930707e-07 -0.00043791858 0 -5.142582e-06 0 0)
(1.0149692e-07 -0.0013153019 0 -4.9950211e-05 0 0)
(4.097539e-07 -0.0021957575 0 -0.00013910378 0 0)
(1.1817408e-07 -0.0030760574 0 -0.00027217053 0 0)
(-2.5773027e-08 0.0030760678 0 -0.00027203687 0 0)
(1.8115804e-07 0.0021959569 0 -0.0001388937 0 0)
(1.0716475e-07 0.0013156574 0 -4.9973365e-05 0 0)
(-6.4147899e-08 0.00043810057 0 -5.4667773e-06 0 0)
(-1.3287951e-07 -0.00043807537 0 -5.3976857e-06 0 0)
(1.0276223e-07 -0.0013156611 0 -4.9969173e-05 0 0)
(1.7600079e-07 -0.0021959538 0 -0.00013888833 0 0)
(-2.8351321e-08 -0.0030760557 0 -0.00027203357 0 0)
(-9.3140425e-08 0.0030760836 0 -0.00027197883 0 0)
(4.6960388e-08 0.0021960552 0 -0.00013876585 0 0)
(9.3203963e-08 0.0013158384 0 -4.9969038e-05 0 0)
(1.2779479e-08 0.00043815957 0 -5.5472995e-06 0 0)
(1.2227867e-08 -0.00043817231 0 -5.5467851e-06 0 0)
(8.9209114e-08 -0.0013158449 0 -4.9965222e-05 0 0)
(4.3114849e-08 -0.0021960516 0 -0.00013876181 0 0)
(-9.533499e-08 -0.0030760722 0 -0.00027197596 0 0)
(-1.0807172e-07 0.0030761012 0 -0.00027197082 0 0)
(-1.2522916e-08 0.0021960889 0 -0.00013870952 0 0)
(7.603398e-08 0.0013159331 0 -4.9954937e-05 0 0)
(6.2423094e-08 0.00043819638 0 -5.5991959e-06 0 0)
(6.4332864e-08 -0.00043820915 0 -5.601308e-06 0 0)
(7.2287569e-08 -0.0013159377 0 -4.9951398e-05 0 0)
(-1.6662041e-08 -0.0021960859 0 -0.00013870517 0 0)
(-1.1023396e-07 -0.0030760907 0 -0.00027196809 0 0)
(-1.0148707e-07 0.0030761219 0 -0.00027198376 0 0)
(-4.9905791e-08 0.0021961004 0 -0.00013867034 0 0)
(5.9957527e-08 0.0013159657 0 -4.9940397e-05 0 0)
(1.0262774e-07 0.00043823127 0 -5.6403102e-06 0 0)
(8.9243931e-08 -0.00043823176 0 -5.6269877e-06 0 0)
(5.6251705e-08 -0.0013159707 0 -4.9936829e-05 0 0)
(-5.3437445e-08 -0.0021960974 0 -0.00013866665 0 0)
(-1.0361378e-07 -0.0030761117 0 -0.00027198104 0 0)
(-8.5687753e-08 0.0030761375 0 -0.00027200361 0 0)
(-4.8476201e-08 0.0021960923 0 -0.00013867153 0 0)
(4.3157676e-08 0.0013159762 0 -4.9922346e-05 0 0)
(9.2844262e-08 0.00043822678 0 -5.6307793e-06 0 0)
(9.493774e-08 -0.00043823889 0 -5.6329716e-06 0 0)
(3.9763941e-08 -0.0013159806 0 -4.9919147e-05 0 0)
(-5.2495329e-08 -0.0021960892 0 -0.00013866726 0 0)
(-8.7546114e-08 -0.0030761282 0 -0.00027200131 0 0)
(-6.9117474e-08 0.0030761506 0 -0.00027202329 0 0)
(-4.8679154e-08 0.0021960745 0 -0.00013866954 0 0)
(3.2631609e-08 0.0013159664 0 -4.9911373e-05 0 0)
(8.2338828e-08 0.00043823017 0 -5.6200268e-06 0 0)
(8.2262773e-08 -0.00043823838 0 -5.6201145e-06 0 0)
(2.9131272e-08 -0.0013159704 0 -4.9907962e-05 0 0)
(-5.1998202e-08 -0.002196072 0 -0.00013866611 0 0)
(-7.0638681e-08 -0.0030761422 0 -0.0002720213 0 0)
(-5.2892264e-08 0.0030761611 0 -0.00027204167 0 0)
(-4.0221637e-08 0.0021960615 0 -0.00013867681 0 0)
(2.4340762e-08 0.0013159531 0 -4.9901629e-05 0 0)
(7.5621055e-08 0.00043822505 0 -5.6132471e-06 0 0)
(7.2515279e-08 -0.00043823305 0 -5.6101597e-06 0 0)
(2.0922198e-08 -0.0013159568 0 -4.9898357e-05 0 0)
(-4.3743244e-08 -0.0021960594 0 -0.00013867309 0 0)
(-5.4642925e-08 -0.0030761529 0 -0.00027203954 0 0)
(-4.2300857e-08 0.0030761685 0 -0.00027205383 0 0)
(-3.5154265e-08 0.0021960534 0 -0.00013868034 0 0)
(1.3985042e-08 0.0013159343 0 -4.9890491e-05 0 0)
(5.4355917e-08 0.00043821882 0 -5.5914917e-06 0 0)
(5.5017587e-08 -0.00043822677 0 -5.5922912e-06 0 0)
(1.1291696e-08 -0.0013159387 0 -4.9887883e-05 0 0)
(-3.8252201e-08 -0.002196051 0 -0.00013867713 0 0)
(-4.3768764e-08 -0.0030761612 0 -0.00027205198 0 0)
(-3.0151897e-08 0.0030761754 0 -0.00027206701 0 0)
(-2.6627459e-08 0.0021960408 0 -0.00013868827 0 0)
(1.2518346e-08 0.0013159237 0 -4.9888044e-05 0 0)
(5.4007412e-08 0.00043821654 0 -5.5911285e-06 0 0)
(4.9504143e-08 -0.00043822223 0 -5.5866217e-06 0 0)
(9.335869e-09 -0.0013159264 0 -4.988498e-05 0 0)
(-2.9845265e-08 -0.0021960387 0 -0.00013868488 0 0)
(-3.1718968e-08 -0.0030761685 0 -0.00027206512 0 0)
(-2.4269403e-08 0.0030761799 0 -0.00027207369 0 0)
(-2.2839418e-08 0.0021960354 0 -0.00013869091 0 0)
(8.1631166e-09 0.0013159111 0 -4.9883258e-05 0 0)
(3.5748269e-08 0.00043820903 0 -5.572423e-06 0 0)
(3.4596038e-08 -0.00043821561 0 -5.5713736e-06 0 0)
(5.241375e-09 -0.0013159142 0 -4.9880401e-05 0 0)
(-2.573942e-08 -0.0021960334 0 -0.0001386879 0 0)
(-2.5643741e-08 -0.0030761737 0 -0.000272072 0 0)
(-1.7235186e-08 0.003076184 0 -0.00027208114 0 0)
(-1.6813542e-08 0.002196027 0 -0.00013869686 0 0)
(7.9474647e-09 0.0013159039 0 -4.9882224e-05 0 0)
(3.2398952e-08 0.00043820668 0 -5.569072e-06 0 0)
(3.1501193e-08 -0.00043821241 0 -5.5682127e-06 0 0)
(5.1566401e-09 -0.0013159065 0 -4.9879524e-05 0 0)
(-1.9755243e-08 -0.0021960253 0 -0.00013869376 0 0)
(-1.8666154e-08 -0.0030761782 0 -0.00027207943 0 0)
(-1.3919735e-08 0.003076187 0 -0.00027208488 0 0)
(-1.426746e-08 0.0021960236 0 -0.00013869858 0 0)
(5.0260422e-09 0.0013158947 0 -4.9879221e-05 0 0)
(2.2981801e-08 0.00043820151 0 -5.5593582e-06 0 0)
(2.1797641e-08 -0.00043820701 0 -5.5582549e-06 0 0)
(2.3510587e-09 -0.0013158973 0 -4.9876598e-05 0 0)
(-1.6918554e-08 -0.002196022 0 -0.00013869582 0 0)
(-1.5183517e-08 -0.0030761818 0 -0.00027208336 0 0)
(-1.0578171e-08 0.0030761895 0 -0.00027208835 0 0)
(-1.1121285e-08 0.0021960188 0 -0.00013870193 0 0)
(4.9326354e-09 0.0013158895 0 -4.9878518e-05 0 0)
(1.9405288e-08 0.00043819915 0 -5.5558231e-06 0 0)
(1.8864452e-08 -0.00043820403 0 -5.5553218e-06 0 0)
(2.481698e-09 -0.0013158917 0 -4.9876134e-05 0 0)
(-1.3739232e-08 -0.0021960174 0 -0.00013869919 0 0)
(-1.1864578e-08 -0.0030761847 0 -0.00027208684 0 0)
(-8.6000534e-09 0.0030761915 0 -0.00027209059 0 0)
(-9.1698649e-09 0.0021960164 0 -0.00013870324 0 0)
(3.4733791e-09 0.0013158834 0 -4.9877177e-05 0 0)
(1.5312564e-08 0.00043819644 0 -5.5515321e-06 0 0)
(1.385896e-08 -0.00043820059 0 -5.5501377e-06 0 0)
(1.1362316e-09 -0.0013158857 0 -4.9874882e-05 0 0)
(-1.1540561e-08 -0.0021960152 0 -0.00013870077 0 0)
(-9.7606092e-09 -0.0030761872 0 -0.00027208922 0 0)
(-7.2457436e-09 0.0030761933 0 -0.00027209195 0 0)
(-8.0510585e-09 0.0021960138 0 -0.00013870471 0 0)
(3.3960617e-09 0.00131588 0 -4.9876614e-05 0 0)
(1.3898376e-08 0.00043819528 0 -5.5502062e-06 0 0)
(1.356327e-08 -0.00043819973 0 -5.5499055e-06 0 0)
(1.2817686e-09 -0.001315882 0 -4.9874553e-05 0 0)
(-1.0309986e-08 -0.0021960127 0 -0.00013870234 0 0)
(-8.3783988e-09 -0.0030761894 0 -0.00027209064 0 0)
(-6.1704826e-09 0.0030761949 0 -0.00027209322 0 0)
(-6.5619836e-09 0.002196012 0 -0.00013870562 0 0)
(2.6595248e-09 0.0013158758 0 -4.9876097e-05 0 0)
(1.2093722e-08 0.00043819358 0 -5.5482463e-06 0 0)
(1.1222986e-08 -0.00043819759 0 -5.5474295e-06 0 0)
(6.8732401e-10 -0.0013158778 0 -4.987416e-05 0 0)
(-8.6055886e-09 -0.0021960111 0 -0.00013870349 0 0)
(-7.1919819e-09 -0.0030761914 0 -0.00027209202 0 0)
(-5.5811148e-09 0.0030761963 0 -0.00027209377 0 0)
(-6.4288177e-09 0.0021960106 0 -0.00013870618 0 0)
(2.6872583e-09 0.0013158733 0 -4.9875696e-05 0 0)
(1.1253368e-08 0.00043819256 0 -5.5475115e-06 0 0)
(1.0865878e-08 -0.00043819628 0 -5.5471489e-06 0 0)
(9.1442104e-10 -0.0013158751 0 -4.9873968e-05 0 0)
(-8.3146185e-09 -0.0021960097 0 -0.0001387042 0 0)
(-6.5450556e-09 -0.0030761932 0 -0.00027209266 0 0)
(-5.0934993e-09 0.0030761976 0 -0.00027209441 0 0)
(-5.3856802e-09 0.0021960093 0 -0.00013870668 0 0)
(2.1910126e-09 0.0013158706 0 -4.9875474e-05 0 0)
(1.0392836e-08 0.00043819129 0 -5.546513e-06 0 0)
(9.7495428e-09 -0.00043819472 0 -5.5459178e-06 0 0)
(5.87284e-10 -0.0013158723 0 -4.98739e-05 0 0)
(-7.0773286e-09 -0.0021960086 0 -0.00013870491 0 0)
(-5.9482845e-09 -0.0030761948 0 -0.00027209341 0 0)
(-4.7495472e-09 0.003076199 0 -0.00027209471 0 0)
(-5.5999211e-09 0.0021960083 0 -0.00013870692 0 0)
(2.3240529e-09 0.0013158682 0 -4.987521e-05 0 0)
(9.8016961e-09 0.00043819044 0 -5.5460363e-06 0 0)
(9.3844934e-09 -0.00043819347 0 -5.5456359e-06 0 0)
(8.9075036e-10 -0.0013158698 0 -4.9873817e-05 0 0)
(-7.1208445e-09 -0.0021960076 0 -0.00013870532 0 0)
(-5.5356397e-09 -0.0030761964 0 -0.0002720938 0 0)
(-4.5578798e-09 0.0030762 0 -0.00027209502 0 0)
(-4.8376013e-09 0.0021960073 0 -0.00013870716 0 0)
(1.8653964e-09 0.0013158664 0 -4.9875054e-05 0 0)
(9.3664991e-09 0.00043818939 0 -5.5454699e-06 0 0)
(8.8648606e-09 -0.00043819222 0 -5.5450118e-06 0 0)
(6.0762298e-10 -0.0013158679 0 -4.9873821e-05 0 0)
(-6.1855093e-09 -0.0021960067 0 -0.00013870575 0 0)
(-5.2441532e-09 -0.0030761978 0 -0.00027209422 0 0)
(-4.3086716e-09 0.0030762013 0 -0.00027209522 0 0)
(-5.1723631e-09 0.0021960065 0 -0.00013870729 0 0)
(2.0616503e-09 0.0013158642 0 -4.9874876e-05 0 0)
(8.888213e-09 0.00043818865 0 -5.5451106e-06 0 0)
(8.5170111e-09 -0.00043819112 0 -5.5447504e-06 0 0)
(9.4505134e-10 -0.0013158655 0 -4.9873797e-05 0 0)
(-6.3564918e-09 -0.0021960059 0 -0.00013870605 0 0)
(-4.9243529e-09 -0.0030761993 0 -0.0002720945 0 0)
(-4.2443449e-09 0.0030762023 0 -0.0002720954 0 0)
(-4.5340778e-09 0.0021960057 0 -0.00013870742 0 0)
(1.6144837e-09 0.0013158628 0 -4.9874742e-05 0 0)
(8.6494709e-09 0.00043818769 0 -5.5447432e-06 0 0)
(8.2660901e-09 -0.00043819003 0 -5.5444002e-06 0 0)
(6.6106987e-10 -0.0013158639 0 -4.9873809e-05 0 0)
(-5.5697172e-09 -0.0021960052 0 -0.00013870634 0 0)
(-4.7741765e-09 -0.0030762005 0 -0.00027209477 0 0)
(-4.0349369e-09 0.0030762036 0 -0.00027209556 0 0)
(-4.9174017e-09 0.002196005 0 -0.00013870752 0 0)
(1.8440235e-09 0.0013158608 0 -4.987461e-05 0 0)
(8.2287417e-09 0.00043818702 0 -5.5444443e-06 0 0)
(7.9321833e-09 -0.00043818906 0 -5.5441542e-06 0 0)
(1.0028795e-09 -0.0013158618 0 -4.9873804e-05 0 0)
(-5.8086838e-09 -0.0021960045 0 -0.00013870658 0 0)
(-4.4997329e-09 -0.0030762019 0 -0.00027209501 0 0)
(-4.0218923e-09 0.0030762045 0 -0.00027209568 0 0)
(-4.3231626e-09 0.0021960043 0 -0.0001387076 0 0)
(1.4109278e-09 0.0013158594 0 -4.9874495e-05 0 0)
(8.0826084e-09 0.00043818613 0 -5.5441704e-06 0 0)
(7.7971524e-09 -0.00043818806 0 -5.543923e-06 0 0)
(7.1087635e-10 -0.0013158604 0 -4.9873813e-05 0 0)
(-5.0922741e-09 -0.0021960039 0 -0.0001387068 0 0)
(-4.4155694e-09 -0.003076203 0 -0.00027209521 0 0)
(-3.8278372e-09 0.0030762057 0 -0.00027209582 0 0)
(-4.7242556e-09 0.0021960036 0 -0.00013870769 0 0)
(1.6607233e-09 0.0013158576 0 -4.987439e-05 0 0)
(7.6952231e-09 0.00043818549 0 -5.5439068e-06 0 0)
(7.4742248e-09 -0.00043818719 0 -5.5436888e-06 0 0)
(1.045701e-09 -0.0013158585 0 -4.9873808e-05 0 0)
(-5.3743967e-09 -0.0021960032 0 -0.000138707 0 0)
(-4.1667712e-09 -0.0030762043 0 -0.00027209541 0 0)
(-3.8349737e-09 0.0030762066 0 -0.00027209593 0 0)
(-4.1417239e-09 0.002196003 0 -0.00013870776 0 0)
(1.2426411e-09 0.0013158563 0 -4.9874293e-05 0 0)
(7.595429e-09 0.00043818464 0 -5.5436798e-06 0 0)
(7.3881506e-09 -0.00043818627 0 -5.5435087e-06 0 0)
(7.4340181e-10 -0.0013158571 0 -4.987381e-05 0 0)
(-4.6955492e-09 -0.0021960026 0 -0.00013870718 0 0)
(-4.1171641e-09 -0.0030762053 0 -0.00027209557 0 0)
(-3.6456578e-09 0.0030762077 0 -0.00027209605 0 0)
(-4.5470468e-09 0.0021960024 0 -0.00013870785 0 0)
(1.5077314e-09 0.0013158546 0 -4.9874206e-05 0 0)
(7.2305627e-09 0.00043818403 0 -5.5434402e-06 0 0)
(7.0738539e-09 -0.00043818547 0 -5.5432838e-06 0 0)
(1.0691195e-09 -0.0013158553 0 -4.98738e-05 0 0)
(-5.008229e-09 -0.002196002 0 -0.00013870736 0 0)
(-3.8849598e-09 -0.0030762066 0 -0.00027209575 0 0)
(-3.660766e-09 0.0030762086 0 -0.00027209615 0 0)
(-3.964274e-09 0.0021960018 0 -0.00013870792 0 0)
(1.1039675e-09 0.0013158534 0 -4.9874127e-05 0 0)
(7.1567607e-09 0.00043818322 0 -5.5432398e-06 0 0)
(7.0089422e-09 -0.00043818463 0 -5.5431266e-06 0 0)
(7.5660567e-10 -0.0013158541 0 -4.9873795e-05 0 0)
(-4.3518131e-09 -0.0021960014 0 -0.00013870752 0 0)
(-3.8566764e-09 -0.0030762075 0 -0.00027209589 0 0)
(-3.4719985e-09 0.0030762097 0 -0.00027209627 0 0)
(-4.3688376e-09 0.0021960012 0 -0.00013870801 0 0)
(1.3815562e-09 0.0013158518 0 -4.9874055e-05 0 0)
(6.8089532e-09 0.00043818263 0 -5.5430184e-06 0 0)
(6.7016488e-09 -0.00043818387 0 -5.5429092e-06 0 0)
(1.0739545e-09 -0.0013158524 0 -4.9873779e-05 0 0)
(-4.68995e-09 -0.0021960008 0 -0.00013870767 0 0)
(-3.6363893e-09 -0.0030762086 0 -0.00027209605 0 0)
(-3.4905785e-09 0.0030762105 0 -0.00027209636 0 0)
(-3.782164e-09 0.0021960006 0 -0.00013870809 0 0)
(9.9036425e-10 0.0013158507 0 -4.9873992e-05 0 0)
(6.751849e-09 0.00043818186 0 -5.5428354e-06 0 0)
(6.6470037e-09 -0.0004381831 0 -5.542764e-06 0 0)
(7.524659e-10 -0.0013158513 0 -4.9873768e-05 0 0)
(-4.0471373e-09 -0.0021960003 0 -0.00013870782 0 0)
(-3.6232412e-09 -0.0030762095 0 -0.00027209618 0 0)
(-3.3010096e-09 0.0030762116 0 -0.00027209648 0 0)
(-4.1848626e-09 0.0021960001 0 -0.00013870819 0 0)
(1.2780892e-09 0.0013158491 0 -4.9873932e-05 0 0)
(6.4177599e-09 0.00043818128 0 -5.5426287e-06 0 0)
(6.3457211e-09 -0.00043818237 0 -5.542553e-06 0 0)
(1.0629844e-09 -0.0013158496 0 -4.9873747e-05 0 0)
(-4.4081331e-09 -0.0021959998 0 -0.00013870796 0 0)
(-3.4120083e-09 -0.0030762106 0 -0.00027209633 0 0)
(-3.3216652e-09 0.0030762123 0 -0.00027209657 0 0)
(-3.594005e-09 0.0021959996 0 -0.00013870827 0 0)
(8.971363e-10 0.0013158481 0 -4.9873881e-05 0 0)
(6.3727523e-09 0.00043818056 0 -5.5424584e-06 0 0)
(6.2972836e-09 -0.00043818168 0 -5.5424153e-06 0 0)
(7.3421733e-10 -0.0013158486 0 -4.9873731e-05 0 0)
(-3.7761915e-09 -0.0021959992 0 -0.00013870808 0 0)
(-3.4105088e-09 -0.0030762114 0 -0.00027209644 0 0)
(-3.1311815e-09 0.0030762134 0 -0.00027209669 0 0)
(-3.9954115e-09 0.0021959991 0 -0.00013870837 0 0)
(1.1928699e-09 0.0013158466 0 -4.9873831e-05 0 0)
(6.0500298e-09 0.00043818 0 -5.5422639e-06 0 0)
(6.0015449e-09 -0.00043818097 0 -5.5422102e-06 0 0)
(1.0395544e-09 -0.001315847 0 -4.9873707e-05 0 0)
(-4.150546e-09 -0.0021959987 0 -0.00013870821 0 0)
(-3.2062932e-09 -0.0030762125 0 -0.00027209657 0 0)
(-3.1537283e-09 0.0030762141 0 -0.00027209678 0 0)
(-3.4013338e-09 0.0021959986 0 -0.00013870846 0 0)
(8.1984401e-10 0.0013158456 0 -4.987379e-05 0 0)
(6.0145422e-09 0.00043817932 0 -5.5421038e-06 0 0)
(5.9578807e-09 -0.00043818035 0 -5.5420787e-06 0 0)
(7.0531783e-10 -0.001315846 0 -4.9873687e-05 0 0)
(-3.5295356e-09 -0.0021959982 0 -0.00013870833 0 0)
(-3.2141038e-09 -0.0030762132 0 -0.00027209668 0 0)
(-2.9627249e-09 0.0030762151 0 -0.00027209689 0 0)
(-3.8025967e-09 0.0021959981 0 -0.00013870856 0 0)
(1.1216753e-09 0.0013158442 0 -4.9873747e-05 0 0)
(5.7014652e-09 0.00043817877 0 -5.5419195e-06 0 0)
(5.6676185e-09 -0.00043817967 0 -5.5418792e-06 0 0)
(1.006954e-09 -0.0013158446 0 -4.9873661e-05 0 0)
(-3.9144031e-09 -0.0021959978 0 -0.00013870845 0 0)
(-3.0153612e-09 -0.0030762142 0 -0.0002720968 0 0)
(-2.9874151e-09 0.0030762157 0 -0.00027209698 0 0)
(-3.2067632e-09 0.0021959976 0 -0.00013870865 0 0)
(7.54557e-10 0.0013158433 0 -4.9873714e-05 0 0)
(5.6739005e-09 0.00043817814 0 -5.541768e-06 0 0)
(5.6282578e-09 -0.00043817911 0 -5.5417531e-06 0 0)
(6.6896172e-10 -0.0013158437 0 -4.9873639e-05 0 0)
(-3.3022061e-09 -0.0021959973 0 -0.00013870855 0 0)
(-3.0307609e-09 -0.0030762149 0 -0.0002720969 0 0)
(-2.7964579e-09 0.0030762167 0 -0.00027209709 0 0)
(-3.6087672e-09 0.0021959972 0 -0.00013870876 0 0)
(1.0608632e-09 0.0013158419 0 -4.9873678e-05 0 0)
(5.3692288e-09 0.00043817761 0 -5.5415926e-06 0 0)
(5.3436708e-09 -0.00043817844 0 -5.5415594e-06 0 0)
(9.6811173e-10 -0.0013158423 0 -4.9873613e-05 0 0)
(-3.6956747e-09 -0.0021959968 0 -0.00013870867 0 0)
(-2.8363301e-09 -0.0030762158 0 -0.00027209702 0 0)
(-2.8236609e-09 0.0030762173 0 -0.00027209717 0 0)
(-3.0137628e-09 0.0021959967 0 -0.00013870884 0 0)
(6.9803863e-10 0.001315841 0 -4.987365e-05 0 0)
(5.3485488e-09 0.00043817702 0 -5.5414485e-06 0 0)
(5.3084897e-09 -0.00043817794 0 -5.5414385e-06 0 0)
(6.2784814e-10 -0.0013158414 0 -4.9873589e-05 0 0)
(-3.0904079e-09 -0.0021959964 0 -0.00013870877 0 0)
(-2.8580279e-09 -0.0030762165 0 -0.00027209711 0 0)
(-2.6333299e-09 0.0030762182 0 -0.00027209728 0 0)
(-3.4152199e-09 0.0021959963 0 -0.00013870895 0 0)
(1.0075175e-09 0.0013158397 0 -4.9873618e-05 0 0)
(5.0514362e-09 0.00043817651 0 -5.5412809e-06 0 0)
(5.0299157e-09 -0.00043817729 0 -5.5412507e-06 0 0)
(9.2545181e-10 -0.0013158401 0 -4.9873563e-05 0 0)
(-3.4908796e-09 -0.002195996 0 -0.00013870888 0 0)
(-2.6670736e-09 -0.0030762173 0 -0.00027209722 0 0)
(-2.6634011e-09 0.0030762188 0 -0.00027209736 0 0)
(-2.8253257e-09 0.0021959959 0 -0.00013870904 0 0)
(6.4778799e-10 0.001315839 0 -4.9873595e-05 0 0)
(5.0369659e-09 0.00043817596 0 -5.5411435e-06 0 0)
(4.9989168e-09 -0.00043817685 0 -5.541135e-06 0 0)
(5.8412149e-10 -0.0013158393 0 -4.9873539e-05 0 0)
(-2.8912967e-09 -0.0021959956 0 -0.00013870897 0 0)
(-2.6941235e-09 -0.003076218 0 -0.0002720973 0 0)
(-2.4742219e-09 0.0030762196 0 -0.00027209747 0 0)
(-3.2241478e-09 0.0021959955 0 -0.00013870914 0 0)
(9.5944601e-10 0.0013158377 0 -4.9873567e-05 0 0)
(4.7468773e-09 0.00043817547 0 -5.5409832e-06 0 0)
(4.7267365e-09 -0.00043817621 0 -5.5409534e-06 0 0)
(8.808695e-10 -0.001315838 0 -4.9873513e-05 0 0)
(-3.2975309e-09 -0.0021959952 0 -0.00013870907 0 0)
(-2.5060833e-09 -0.0030762188 0 -0.00027209741 0 0)
(-2.5074527e-09 0.0030762201 0 -0.00027209754 0 0)
(-2.6392137e-09 0.0021959951 0 -0.00013870923 0 0)
(6.0197886e-10 0.001315837 0 -4.9873546e-05 0 0)
(4.7381932e-09 0.00043817496 0 -5.5408519e-06 0 0)
(4.6999709e-09 -0.00043817582 0 -5.5408426e-06 0 0)
(5.393998e-10 -0.0013158373 0 -4.987349e-05 0 0)
(-2.7028342e-09 -0.0021959948 0 -0.00013870916 0 0)
(-2.5378176e-09 -0.0030762194 0 -0.00027209749 0 0)
(-2.3198719e-09 0.0030762209 0 -0.00027209764 0 0)
(-3.0398385e-09 0.0021959947 0 -0.00013870933 0 0)
(9.1509099e-10 0.0013158358 0 -4.9873521e-05 0 0)
(4.4548237e-09 0.0004381745 0 -5.5406984e-06 0 0)
(4.4345478e-09 -0.0004381752 0 -5.5406676e-06 0 0)
(8.357745e-10 -0.0013158361 0 -4.9873465e-05 0 0)
(-3.1139227e-09 -0.0021959944 0 -0.00013870926 0 0)
(-2.3523475e-09 -0.0030762202 0 -0.00027209759 0 0)
(-2.3564777e-09 0.0030762214 0 -0.00027209772 0 0)
(-2.4575306e-09 0.0021959943 0 -0.00013870941 0 0)
(5.5934681e-10 0.0013158351 0 -4.9873502e-05 0 0)
(4.4516755e-09 0.00043817403 0 -5.540573e-06 0 0)
(4.4120813e-09 -0.00043817486 0 -5.5405617e-06 0 0)
(4.9484719e-10 -0.0013158354 0 -4.9873444e-05 0 0)
(-2.5236301e-09 -0.002195994 0 -0.00013870935 0 0)
(-2.3883125e-09 -0.0030762207 0 -0.00027209767 0 0)
(-2.1708598e-09 0.0030762222 0 -0.00027209781 0 0)
(-2.862358e-09 0.002195994 0 -0.00013870951 0 0)
(8.7340572e-10 0.001315834 0 -4.9873479e-05 0 0)
(4.1748773e-09 0.00043817358 0 -5.5404259e-06 0 0)
(4.1537297e-09 -0.00043817426 0 -5.5403934e-06 0 0)
(7.9116905e-10 -0.0013158343 0 -4.987342e-05 0 0)
(-2.9389386e-09 -0.0021959937 0 -0.00013870944 0 0)
(-2.2052328e-09 -0.0030762214 0 -0.00027209776 0 0)
(-2.2109824e-09 0.0030762227 0 -0.00027209788 0 0)
(-2.2827154e-09 0.0021959936 0 -0.00013870959 0 0)
(5.1906297e-10 0.0013158334 0 -4.9873462e-05 0 0)
(4.1771265e-09 0.00043817315 0 -5.5403062e-06 0 0)
(4.1356235e-09 -0.00043817395 0 -5.5402923e-06 0 0)
(4.5126536e-10 -0.0013158337 0 -4.9873399e-05 0 0)
(-2.3527838e-09 -0.0021959933 0 -0.00013870952 0 0)
(-2.2451286e-09 -0.0030762219 0 -0.00027209783 0 0)
(-2.0276165e-09 0.0030762234 0 -0.00027209798 0 0)
(-2.6917605e-09 0.0021959933 0 -0.00013870969 0 0)
(8.3372752e-10 0.0013158323 0 -4.987344e-05 0 0)
(3.9068507e-09 0.00043817272 0 -5.5401655e-06 0 0)
(3.8845979e-09 -0.00043817338 0 -5.5401311e-06 0 0)
(7.477353e-10 -0.0013158326 0 -4.9873376e-05 0 0)
(-2.7718838e-09 -0.002195993 0 -0.00013870961 0 0)
(-2.0643741e-09 -0.0030762226 0 -0.00027209793 0 0)
(-2.0713355e-09 0.0030762238 0 -0.00027209804 0 0)
(-2.1153381e-09 0.002195993 0 -0.00013870977 0 0)
(4.8061534e-10 0.0013158318 0 -4.9873425e-05 0 0)
(3.9144226e-09 0.00043817232 0 -5.5400512e-06 0 0)
(3.8708938e-09 -0.0004381731 0 -5.5400347e-06 0 0)
(4.091807e-10 -0.0013158321 0 -4.9873357e-05 0 0)
(-2.1897413e-09 -0.0021959927 0 -0.00013870969 0 0)
(-2.1080054e-09 -0.0030762231 0 -0.00027209799 0 0)
(-1.8904456e-09 0.0030762245 0 -0.00027209813 0 0)
(-2.5284743e-09 0.0021959927 0 -0.00013870986 0 0)
(7.9566589e-10 0.0013158308 0 -4.9873404e-05 0 0)
(3.6506726e-09 0.00043817192 0 -5.5399167e-06 0 0)
(3.6273886e-09 -0.00043817256 0 -5.5398807e-06 0 0)
(7.0591698e-10 -0.001315831 0 -4.9873335e-05 0 0)
(-2.6123486e-09 -0.0021959924 0 -0.00013870978 0 0)
(-1.9295835e-09 -0.0030762237 0 -0.00027209808 0 0)
(-1.9377898e-09 0.0030762248 0 -0.0002720982 0 0)
(-1.95572e-09 0.0021959924 0 -0.00013870993 0 0)
(4.4371034e-10 0.0013158302 0 -4.987339e-05 0 0)
(3.6635217e-09 0.00043817155 0 -5.5398078e-06 0 0)
(3.618101e-09 -0.0004381723 0 -5.5397888e-06 0 0)
(3.6892127e-10 -0.0013158305 0 -4.9873318e-05 0 0)