/*--------------------------------*- C++ -*----------------------------------*\
| =========                 |                                                 |
| \\      /  F ield         | OpenFOAM: The Open Source CFD Toolbox           |
|  \\    /   O peration     | Version:  5.x                                   |
|   \\  /    A nd           | Web:      www.OpenFOAM.org                      |
|    \\/     M anipulation  |                                                 |
\*---------------------------------------------------------------------------*/
FoamFile
{
    version     2.0;
    format      ascii;
    class       volSymmTensorField;
    location    "2";
    object      sigma_0;
}
// * * * * * * * * * * * * * * * * * * * * * * * * * * * * * * * * * * * * * //

dimensions      [0 2 -2 0 0 0 0];

internalField   nonuniform List<symmTensor> 
1920
(
(0.00066617062 0.0064051212 0 -0.0044632509 0 0)
(-0.00024713368 0.0019840238 0 0.00086076208 0 0)
(-0.00057750491 0.0016333843 0 0.00038051346 0 0)
(-0.00015848457 0.00055558649 0 0.00019629593 0 0)
(-0.00015846814 -0.00055559265 0 0.00019628056 0 0)
(-0.00057751102 -0.0016333761 0 0.00038051953 0 0)
(-0.0002471353 -0.0019840241 0 0.00086076509 0 0)
(0.00066616972 -0.006405121 0 -0.0044632486 0 0)
(0.0024986132 0.0038356176 0 -0.0016114199 0 0)
(0.00014354801 0.00076644182 0 0.00037400896 0 0)
(-0.0015595716 7.1345884e-06 0 0.0012777658 0 0)
(-0.0015496892 5.7789731e-05 0 0.0013858979 0 0)
(-0.0015496812 -5.7796926e-05 0 0.0013858845 0 0)
(-0.0015595862 -7.0674465e-06 0 0.0012777832 0 0)
(0.00014354977 -0.00076643619 0 0.00037400211 0 0)
(0.0024986127 -0.0038356201 0 -0.001611419 0 0)
(0.0018130292 0.003393843 0 -0.0025330229 0 0)
(0.00054761254 0.00020778381 0 -0.00036187653 0 0)
(-0.0011397346 4.5683866e-05 0 0.00099390694 0 0)
(-0.0013366757 1.1865811e-05 0 0.0012628647 0 0)
(-0.0013366832 -1.1868254e-05 0 0.0012628785 0 0)
(-0.0011397279 -4.5757619e-05 0 0.00099389424 0 0)
(0.00054761493 -0.00020778762 0 -0.00036187551 0 0)
(0.0018130292 -0.0033938416 0 -0.0025330246 0 0)
(0.0013808343 0.0031782664 0 -0.0020673564 0 0)
(0.00056945843 0.00057548301 0 -0.00049691369 0 0)
(-0.00076870679 5.8889646e-05 0 0.00071797175 0 0)
(-0.0011624639 -1.7164512e-05 0 0.0011522849 0 0)
(-0.001162448 1.7157248e-05 0 0.0011522669 0 0)
(-0.00076874097 -5.8882735e-05 0 0.00071800689 0 0)
(0.00056946095 -0.00057548186 0 -0.000496917 0 0)
(0.0013808334 -0.0031782656 0 -0.0020673548 0 0)
(0.0010497694 0.0030569609 0 -0.0015345614 0 0)
(0.00048729769 0.00084638557 0 -0.000477322 0 0)
(-0.00046376612 0.00032291145 0 0.00042685161 0 0)
(-0.0010293036 2.6017755e-05 0 0.0010129386 0 0)
(-0.0010293462 -2.6024413e-05 0 0.0010129841 0 0)
(-0.00046368062 -0.00032295046 0 0.00042676774 0 0)
(0.00048730727 -0.00084639741 0 -0.00047733168 0 0)
(0.0010497786 -0.003056962 0 -0.0015345719 0 0)
(0.00068654243 0.0029102473 0 -0.0010617086 0 0)
(0.00039670649 0.0011054265 0 -0.00042905803 0 0)
(-0.00048657759 0.00031643968 0 0.00045445621 0 0)
(-0.00066774092 0.00010610171 0 0.0006552252 0 0)
(-0.00066773308 -0.00010611035 0 0.00065521417 0 0)
(-0.00048657202 -0.00031645562 0 0.00045445412 0 0)
(0.00039671936 -0.0011054158 0 -0.00042907099 0 0)
(0.00068654484 -0.0029102448 0 -0.0010617101 0 0)
(0.00053410722 0.0028432116 0 -0.00086991995 0 0)
(0.00028757641 0.0013972039 0 -0.00035465895 0 0)
(-0.00022083952 0.00061649784 0 0.00019300441 0 0)
(-0.00053616311 0.00015434656 0 0.00052985966 0 0)
(-0.00053613532 -0.0001543627 0 0.00052983313 0 0)
(-0.0002208328 -0.00061648959 0 0.00019299644 0 0)
(0.00028758797 -0.0013972029 0 -0.00035466987 0 0)
(0.00053410963 -0.0028432037 0 -0.00086992244 0 0)
(0.00035586641 0.0027715496 0 -0.00066531769 0 0)
(0.00023222245 0.0015051046 0 -0.00031829555 0 0)
(-0.00015234053 0.00074194341 0 0.00012326846 0 0)
(-0.00040507701 0.00020139233 0 0.00040228344 0 0)
(-0.00040508107 -0.00020139808 0 0.00040228667 0 0)
(-0.00015233894 -0.00074193174 0 0.00012326705 0 0)
(0.00023223235 -0.0015051026 0 -0.00031830605 0 0)
(0.0003558723 -0.0027715437 0 -0.00066532312 0 0)
(0.0002527445 0.0027315022 0 -0.00054629699 0 0)
(0.00015959004 0.0016438217 0 -0.00026215555 0 0)
(-0.00010100774 0.00084307828 0 6.8260879e-05 0 0)
(-0.00029018483 0.00024550901 0 0.00028832446 0 0)
(-0.00029018713 -0.00024551569 0 0.00028832774 0 0)
(-0.00010099044 -0.0008430868 0 6.8243819e-05 0 0)
(0.00015960665 -0.0016438141 0 -0.00026217289 0 0)
(0.00025274965 -0.0027314904 0 -0.00054630148 0 0)
(0.000170421 0.0027016577 0 -0.00045408614 0 0)
(0.00011731868 0.001715096 0 -0.0002310169 0 0)
(-6.4367124e-05 0.00092566503 0 2.768746e-05 0 0)
(-0.00020006582 0.0002822763 0 0.00019798335 0 0)
(-0.00020002794 -0.00028229643 0 0.000197945 0 0)
(-6.4357473e-05 -0.00092566632 0 2.767752e-05 0 0)
(0.00011732819 -0.0017150895 0 -0.00023102574 0 0)
(0.00017042749 -0.0027016467 0 -0.00045409229 0 0)
(0.00011182004 0.0026816255 0 -0.00038958067 0 0)
(8.3976386e-05 0.0017688024 0 -0.0002057343 0 0)
(-3.981595e-05 0.00098847318 0 -3.2665462e-07 0 0)
(-0.00013486293 0.00031029996 0 0.0001321597 0 0)
(-0.00013494217 -0.00031027545 0 0.00013223937 0 0)
(-3.9807368e-05 -0.00098847237 0 -3.3486441e-07 0 0)
(8.3984356e-05 -0.001768799 0 -0.00020574312 0 0)
(0.00011182512 -0.0026816096 0 -0.00038958441 0 0)
(7.1696251e-05 0.0026685181 0 -0.00034598737 0 0)
(5.7834095e-05 0.0018088725 0 -0.00018517108 0 0)
(-2.412698e-05 0.0010336668 0 -1.8787676e-05 0 0)
(-8.9790364e-05 0.00033051079 0 8.6399745e-05 0 0)
(-8.9640223e-05 -0.00033057941 0 8.6249068e-05 0 0)
(-2.4118324e-05 -0.0010336747 0 -1.8797005e-05 0 0)
(5.7844994e-05 -0.0018088568 0 -0.00018518106 0 0)
(7.1702327e-05 -0.0026685031 0 -0.00034599311 0 0)
(4.5461628e-05 0.0026602622 0 -0.00031772576 0 0)
(3.8850652e-05 0.0018364868 0 -0.00016991117 0 0)
(-1.4336531e-05 0.0010651686 0 -3.0663686e-05 0 0)
(-5.8548409e-05 0.00034503252 0 5.4559099e-05 0 0)
(-5.8756794e-05 -0.00034495352 0 5.4767439e-05 0 0)
(-1.4335521e-05 -0.001065162 0 -3.0664205e-05 0 0)
(3.8852643e-05 -0.0018364827 0 -0.00016991382 0 0)
(4.5462382e-05 -0.0026602428 0 -0.00031772481 0 0)
(2.8289649e-05 0.0026550383 0 -0.00029937921 0 0)
(2.5596439e-05 0.0018548346 0 -0.00015908754 0 0)
(-8.2908393e-06 0.0010867975 0 -3.8204912e-05 0 0)
(-3.8104714e-05 0.00035488885 0 3.3645378e-05 0 0)
(-3.7905525e-05 -0.0003549863 0 3.3446029e-05 0 0)
(-8.2859249e-06 -0.0010868103 0 -3.8210585e-05 0 0)
(2.5602041e-05 -0.0018548203 0 -0.00015909211 0 0)
(2.8294821e-05 -0.0026550213 0 -0.00029938386 0 0)
(1.7256461e-05 0.0026517878 0 -0.00028767822 0 0)
(1.6526795e-05 0.001866841 0 -0.00015157424 0 0)
(-4.6436159e-06 0.0011013268 0 -4.2889217e-05 0 0)
(-2.4124917e-05 0.00036180124 0 1.9319761e-05 0 0)
(-2.4290387e-05 -0.00036173662 0 1.9485446e-05 0 0)
(-4.6473252e-06 -0.0011013197 0 -4.2885047e-05 0 0)
(1.6524024e-05 -0.0018668369 0 -0.00015157188 0 0)
(1.7255311e-05 -0.0026517679 0 -0.00028767539 0 0)
(1.0283759e-05 0.0026498025 0 -0.00028033606 0 0)
(1.0467664e-05 0.0018745157 0 -0.0001464953 0 0)
(-2.483051e-06 0.0011109454 0 -4.5745854e-05 0 0)
(-1.513026e-05 0.00036636761 0 1.0083244e-05 0 0)
(-1.4947136e-05 -0.00036646632 0 9.8994319e-06 0 0)
(-2.482161e-06 -0.0011109599 0 -4.5747448e-05 0 0)
(1.0469173e-05 -0.0018745034 0 -0.00014649585 0 0)
(1.0285438e-05 -0.0026497848 0 -0.00028033704 0 0)
(5.9598129e-06 0.0026486177 0 -0.00027581791 0 0)
(6.4949033e-06 0.0018793452 0 -0.00014312681 0 0)
(-1.2416392e-06 0.0011171936 0 -4.7444113e-05 0 0)
(-9.1260118e-06 0.00036948346 0 3.9160753e-06 0 0)
(-9.324014e-06 -0.00036940349 0 4.114597e-06 0 0)
(-1.2473121e-06 -0.0011171894 0 -4.7438138e-05 0 0)
(6.4892964e-06 -0.0018793417 0 -0.00014312139 0 0)
(5.9573617e-06 -0.0026485989 0 -0.00027581401 0 0)
(3.3289094e-06 0.0026479297 0 -0.00027309005 0 0)
(3.9312419e-06 0.0018823265 0 -0.00014092998 0 0)
(-5.5311237e-07 0.0011211747 0 -4.8423887e-05 0 0)
(-5.5807698e-06 0.00037137787 0 2.647862e-07 0 0)
(-5.4034171e-06 -0.00037147864 0 8.6664174e-08 0 0)
(-5.5498815e-07 -0.0011211885 0 -4.8422591e-05 0 0)
(3.9299076e-06 -0.001882317 0 -0.00014092791 0 0)
(3.3284095e-06 -0.0026479128 0 -0.00027308876 0 0)
(1.7743766e-06 0.0026475491 0 -0.00027149438 0 0)
(2.3204811e-06 0.0018841198 0 -0.00013953549 0 0)
(-1.8756057e-07 0.0011236779 0 -4.8971551e-05 0 0)
(-3.0146784e-06 0.00037276314 0 -2.3706781e-06 0 0)
(-3.1748969e-06 -0.00037269922 0 -2.2100276e-06 0 0)
(-1.9324982e-07 -0.0011236773 0 -4.896576e-05 0 0)
(2.3142028e-06 -0.0018841167 0 -0.00013952922 0 0)
(1.7713964e-06 -0.0026475322 0 -0.00027149023 0 0)
(8.7368434e-07 0.0026473476 0 -0.00027057969 0 0)
(1.3130212e-06 0.0018851855 0 -0.00013865329 0 0)
(-9.9733987e-09 0.0011251988 0 -4.9259363e-05 0 0)
(-1.6951824e-06 0.00037350716 0 -3.7325494e-06 0 0)
(-1.5977599e-06 -0.00037357113 0 -3.8303952e-06 0 0)
(-1.319029e-08 -0.0011252105 0 -4.9256592e-05 0 0)
(1.3102361e-06 -0.0018851785 0 -0.00013865001 0 0)
(8.720925e-07 -0.002647332 0 -0.0002705773 0 0)
(3.7808601e-07 0.0026472534 0 -0.00027008513 0 0)
(7.1485136e-07 0.0018857837 0 -0.00013812441 0 0)
(6.7992374e-08 0.001126122 0 -4.9402441e-05 0 0)
(-7.9903157e-07 0.00037401825 0 -4.6540609e-06 0 0)
(-8.8579312e-07 -0.00037398822 0 -4.5668461e-06 0 0)
(6.3166649e-08 -0.0011261243 0 -4.9397673e-05 0 0)
(7.0918444e-07 -0.0018857805 0 -0.00013811865 0 0)
(3.7527556e-07 -0.0026472384 0 -0.00027008142 0 0)
(1.0972799e-07 0.0026472157 0 -0.00026982259 0 0)
(3.5210325e-07 0.0018861216 0 -0.0001377988 0 0)
(9.0826212e-08 0.001126644 0 -4.9462098e-05 0 0)
(-4.2742435e-07 0.00037424637 0 -5.0393021e-06 0 0)
(-2.9174433e-07 -0.00037433517 0 -5.1763783e-06 0 0)
(8.7212681e-08 -0.0011266532 0 -4.9458813e-05 0 0)
(3.4882601e-07 -0.0018861164 0 -0.00013779522 0 0)
(1.0770755e-07 -0.0026472016 0 -0.00026981985 0 0)
(-1.451726e-08 0.0026472126 0 -0.00026970661 0 0)
(1.5746234e-07 0.0018862838 0 -0.00013762262 0 0)
(8.9579518e-08 0.0011269465 0 -4.9480663e-05 0 0)
(-3.2985864e-08 0.0003744832 0 -5.4433225e-06 0 0)
(-1.0200385e-07 -0.00037445863 0 -5.3740409e-06 0 0)
(8.565174e-08 -0.0011269506 0 -4.947689e-05 0 0)
(1.5278797e-07 -0.0018862804 0 -0.0001376178 0 0)
(-1.686742e-08 -0.0026471994 0 -0.00026970357 0 0)
(-7.3096035e-08 0.0026472255 0 -0.0002696555 0 0)
(4.1382043e-08 0.0018863673 0 -0.00013751462 0 0)
(7.7366616e-08 0.0011270948 0 -4.9478461e-05 0 0)
(1.4375865e-08 0.0003745234 0 -5.4942018e-06 0 0)
(1.3686701e-08 -0.00037453691 0 -5.4934804e-06 0 0)
(7.3790661e-08 -0.0011271018 0 -4.9475121e-05 0 0)
(3.7972229e-08 -0.0018863631 0 -0.00013751101 0 0)
(-7.507876e-08 -0.0026472129 0 -0.00026965288 0 0)
(-8.7757508e-08 0.0026472397 0 -0.00026964752 0 0)
(-8.4502886e-09 0.0018863955 0 -0.00013746746 0 0)
(6.2449204e-08 0.0011271742 0 -4.9467741e-05 0 0)
(5.129529e-08 0.00037455025 0 -5.5330342e-06 0 0)
(5.3557729e-08 -0.00037456418 0 -5.5355486e-06 0 0)
(5.9062792e-08 -0.0011271791 0 -4.9464535e-05 0 0)
(-1.2223413e-08 -0.0018863919 0 -0.00013746353 0 0)
(-8.975131e-08 -0.0026472278 0 -0.00026964499 0 0)
(-8.3229725e-08 0.0026472571 0 -0.00026965733 0 0)
(-4.3728663e-08 0.0018864064 0 -0.00013743148 0 0)
(4.9812822e-08 0.0011272006 0 -4.9456523e-05 0 0)
(8.823695e-08 0.0003745811 0 -5.5710545e-06 0 0)
(7.4742011e-08 -0.00037458241 0 -5.5575854e-06 0 0)
(4.6374374e-08 -0.001127206 0 -4.9453259e-05 0 0)
(-4.6976041e-08 -0.0018864029 0 -0.00013742809 0 0)
(-8.5224515e-08 -0.0026472456 0 -0.00026965478 0 0)
(-7.1745319e-08 0.0026472701 0 -0.00026967311 0 0)
(-4.1288786e-08 0.0018864 0 -0.00013743293 0 0)
(3.5347355e-08 0.00112721 0 -4.9441498e-05 0 0)
(7.9494961e-08 0.00037457483 0 -5.562422e-06 0 0)
(8.1653359e-08 -0.00037458799 0 -5.5647105e-06 0 0)
(3.2147823e-08 -0.0011272148 0 -4.9438478e-05 0 0)
(-4.5123567e-08 -0.0018863963 0 -0.00013742888 0 0)
(-7.3528886e-08 -0.0026472594 0 -0.00026967091 0 0)
(-5.8525636e-08 0.0026472812 0 -0.00026968873 0 0)
(-4.3582873e-08 0.0018863846 0 -0.00013742975 0 0)
(2.7575023e-08 0.0011272012 0 -4.9432967e-05 0 0)
(7.1652807e-08 0.00037457805 0 -5.5545413e-06 0 0)
(7.1665081e-08 -0.00037458731 0 -5.554689e-06 0 0)
(2.4157852e-08 -0.0011272055 0 -4.9429667e-05 0 0)
(-4.6824134e-08 -0.0018863815 0 -0.00013742642 0 0)
(-6.0013083e-08 -0.0026472714 0 -0.00026968681 0 0)
(-4.6185348e-08 0.0026472905 0 -0.00026970366 0 0)
(-3.5985584e-08 0.0018863739 0 -0.00013743534 0 0)
(2.0738154e-08 0.0011271897 0 -4.9425204e-05 0 0)
(6.858264e-08 0.0003745733 0 -5.5513044e-06 0 0)
(6.5426798e-08 -0.00037458234 0 -5.5481936e-06 0 0)
(1.7313276e-08 -0.0011271937 0 -4.9421915e-05 0 0)
(-3.9526394e-08 -0.0018863711 0 -0.00013743162 0 0)
(-4.7970254e-08 -0.0026472809 0 -0.00026970152 0 0)
(-3.787026e-08 0.0026472972 0 -0.00026971299 0 0)
(-3.3400539e-08 0.0018863679 0 -0.00013743716 0 0)
(1.2106977e-08 0.0011271724 0 -4.9415412e-05 0 0)
(5.0135601e-08 0.00037456753 0 -5.5325612e-06 0 0)
(5.0816845e-08 -0.00037457655 0 -5.5333551e-06 0 0)
(9.3093828e-09 -0.0011271772 0 -4.9412721e-05 0 0)
(-3.6626437e-08 -0.0018863649 0 -0.00013743384 0 0)
(-3.9411691e-08 -0.0026472884 0 -0.00026971109 0 0)
(-2.8295658e-08 0.0026473039 0 -0.0002697241 0 0)
(-2.5490101e-08 0.0018863567 0 -0.00013744367 0 0)
(1.1260796e-08 0.0011271631 0 -4.9414035e-05 0 0)
(5.2757931e-08 0.00037456573 0 -5.535058e-06 0 0)
(4.8140401e-08 -0.00037457246 0 -5.5304626e-06 0 0)
(7.897264e-09 -0.0011271663 0 -4.941078e-05 0 0)
(-2.8920693e-08 -0.0018863541 0 -0.00013744008 0 0)
(-2.9997551e-08 -0.0026472955 0 -0.0002697221 0 0)
(-2.3481171e-08 0.0026473084 0 -0.0002697292 0 0)
(-2.3649148e-08 0.0018863524 0 -0.00013744512 0 0)
(8.0222655e-09 0.0011271514 0 -4.9409961e-05 0 0)
(3.6294205e-08 0.00037455843 0 -5.5183222e-06 0 0)
(3.5043833e-08 -0.00037456606 0 -5.5171507e-06 0 0)
(4.822828e-09 -0.0011271549 0 -4.9406845e-05 0 0)
(-2.685381e-08 -0.0018863499 0 -0.00013744181 0 0)
(-2.5018698e-08 -0.0026473008 0 -0.00026972737 0 0)
(-1.8008412e-08 0.0026473128 0 -0.00026973561 0 0)
(-1.7669159e-08 0.0018863447 0 -0.00013745022 0 0)
(7.9054851e-09 0.0011271446 0 -4.9409443e-05 0 0)
(3.470582e-08 0.00037455619 0 -5.5166091e-06 0 0)
(3.365868e-08 -0.00037456297 0 -5.5156255e-06 0 0)
(4.789893e-09 -0.0011271476 0 -4.9406407e-05 0 0)
(-2.0974822e-08 -0.0018863425 0 -0.00013744677 0 0)
(-1.9650981e-08 -0.0026473057 0 -0.00026973372 0 0)
(-1.4944979e-08 0.0026473162 0 -0.00026973862 0 0)
(-1.6526138e-08 0.0018863416 0 -0.0001374513 0 0)
(5.7075771e-09 0.0011271353 0 -4.9406753e-05 0 0)
(2.6156949e-08 0.00037455091 0 -5.5079229e-06 0 0)
(2.4836744e-08 -0.00037455743 0 -5.5066603e-06 0 0)
(2.6352705e-09 -0.0011271383 0 -4.940375e-05 0 0)
(-1.9605423e-08 -0.0018863396 0 -0.00013744812 0 0)
(-1.6432308e-08 -0.0026473098 0 -0.00026973689 0 0)
(-1.2572856e-08 0.0026473193 0 -0.00026974163 0 0)
(-1.3002825e-08 0.001886337 0 -0.00013745424 0 0)
(5.4168944e-09 0.0011271298 0 -4.9406261e-05 0 0)
(2.348768e-08 0.00037454836 0 -5.5051632e-06 0 0)
(2.2768133e-08 -0.00037455424 0 -5.5045083e-06 0 0)
(2.5518345e-09 -0.0011271325 0 -4.9403452e-05 0 0)
(-1.607677e-08 -0.0018863351 0 -0.00013745104 0 0)
(-1.4115201e-08 -0.0026473133 0 -0.00026973989 0 0)
(-1.039794e-08 0.0026473219 0 -0.00026974359 0 0)
(-1.2099303e-08 0.0018863345 0 -0.00013745526 0 0)
(4.4886675e-09 0.0011271232 0 -4.9405039e-05 0 0)
(1.9682792e-08 0.00037454531 0 -5.5013105e-06 0 0)
(1.8057577e-08 -0.00037455041 0 -5.4997216e-06 0 0)
(1.6908954e-09 -0.0011271259 0 -4.94023e-05 0 0)
(-1.4960728e-08 -0.0018863329 0 -0.00013745231 0 0)
(-1.180993e-08 -0.0026473166 0 -0.00026974198 0 0)
(-9.7150275e-09 0.0026473244 0 -0.00026974479 0 0)
(-1.0364387e-08 0.0018863317 0 -0.00013745657 0 0)
(4.0681862e-09 0.0011271191 0 -4.9404539e-05 0 0)
(1.8714216e-08 0.0003745438 0 -5.5002925e-06 0 0)
(1.8183058e-08 -0.00037454917 0 -5.4998206e-06 0 0)
(1.5050219e-09 -0.0011271215 0 -4.9402017e-05 0 0)
(-1.3111818e-08 -0.0018863303 0 -0.00013745371 0 0)
(-1.1116148e-08 -0.0026473195 0 -0.00026974323 0 0)
(-8.232467e-09 0.0026473266 0 -0.00026974598 0 0)
(-9.7375202e-09 0.0018863297 0 -0.00013745739 0 0)
(3.7725636e-09 0.0011271141 0 -4.9404049e-05 0 0)
(1.689932e-08 0.00037454165 0 -5.4984683e-06 0 0)
(1.5861065e-08 -0.00037454654 0 -5.4974608e-06 0 0)
(1.3292332e-09 -0.0011271164 0 -4.9401656e-05 0 0)
(-1.2278033e-08 -0.0018863284 0 -0.00013745477 0 0)
(-9.5037225e-09 -0.0026473223 0 -0.00026974455 0 0)
(-8.1792144e-09 0.0026473288 0 -0.00026974651 0 0)
(-8.8713786e-09 0.0018863279 0 -0.0001374579 0 0)
(3.3932035e-09 0.0011271106 0 -4.9403646e-05 0 0)
(1.6265066e-08 0.00037454021 0 -5.4977993e-06 0 0)
(1.5681743e-08 -0.00037454475 0 -5.4972656e-06 0 0)
(1.1835079e-09 -0.0011271128 0 -4.940147e-05 0 0)
(-1.1228223e-08 -0.0018863268 0 -0.00013745545 0 0)
(-9.3982263e-09 -0.0026473248 0 -0.00026974517 0 0)
(-7.199748e-09 0.0026473307 0 -0.00026974715 0 0)
(-8.6096155e-09 0.0018863263 0 -0.00013745839 0 0)
(3.2971401e-09 0.001127107 0 -4.940341e-05 0 0)
(1.5251308e-08 0.00037453845 0 -5.4967913e-06 0 0)
(1.4455661e-08 -0.00037454265 0 -5.4960205e-06 0 0)
(1.253126e-09 -0.0011271091 0 -4.9401411e-05 0 0)
(-1.076083e-08 -0.0018863253 0 -0.00013745617 0 0)
(-8.2805882e-09 -0.0026473272 0 -0.00026974594 0 0)
(-7.3375529e-09 0.0026473327 0 -0.00026974747 0 0)
(-8.0415809e-09 0.0018863249 0 -0.00013745863 0 0)
(2.9985831e-09 0.0011271037 0 -4.940312e-05 0 0)
(1.4760845e-08 0.00037453714 0 -5.4962738e-06 0 0)
(1.4162147e-08 -0.00037454087 0 -5.4957167e-06 0 0)
(1.1746942e-09 -0.0011271055 0 -4.9401325e-05 0 0)
(-9.9804487e-09 -0.001886324 0 -0.00013745662 0 0)
(-8.3476835e-09 -0.0026473296 0 -0.00026974636 0 0)
(-6.6259808e-09 0.0026473344 0 -0.00026974783 0 0)
(-8.029858e-09 0.0018863236 0 -0.0001374589 0 0)
(2.9223208e-09 0.001127101 0 -4.9402932e-05 0 0)
(1.4114686e-08 0.00037453559 0 -5.495639e-06 0 0)
(1.3484981e-08 -0.00037453908 0 -5.4950295e-06 0 0)
(1.282346e-09 -0.0011271027 0 -4.9401332e-05 0 0)
(-9.7721512e-09 -0.0018863228 0 -0.0001374571 0 0)
(-7.5014131e-09 -0.0026473317 0 -0.00026974684 0 0)
(-6.8401501e-09 0.0026473364 0 -0.00026974806 0 0)
(-7.5663492e-09 0.0018863224 0 -0.00013745906 0 0)
(2.6796313e-09 0.0011270978 0 -4.940272e-05 0 0)
(1.3697577e-08 0.00037453438 0 -5.4951991e-06 0 0)
(1.3169296e-08 -0.00037453746 0 -5.4947064e-06 0 0)
(1.2391245e-09 -0.0011270994 0 -4.9401306e-05 0 0)
(-9.0950607e-09 -0.0018863217 0 -0.00013745747 0 0)
(-7.6396504e-09 -0.0026473339 0 -0.00026974719 0 0)
(-6.250107e-09 0.002647338 0 -0.00026974829 0 0)
(-7.6677452e-09 0.0018863212 0 -0.00013745921 0 0)
(2.6083825e-09 0.0011270954 0 -4.9402548e-05 0 0)
(1.3229905e-08 0.00037453295 0 -5.4947445e-06 0 0)
(1.2747912e-08 -0.00037453583 0 -5.4942794e-06 0 0)
(1.3446642e-09 -0.0011270968 0 -4.9401321e-05 0 0)
(-9.0193467e-09 -0.0018863206 0 -0.00013745782 0 0)
(-6.926803e-09 -0.0026473358 0 -0.00026974752 0 0)
(-6.4989528e-09 0.0026473399 0 -0.00026974848 0 0)
(-7.2504699e-09 0.0018863202 0 -0.00013745934 0 0)
(2.3991368e-09 0.0011270925 0 -4.9402381e-05 0 0)
(1.2859587e-08 0.00037453181 0 -5.4943544e-06 0 0)
(1.2434821e-08 -0.00037453436 0 -5.4939607e-06 0 0)
(1.3087829e-09 -0.0011270938 0 -4.9401316e-05 0 0)
(-8.4059352e-09 -0.0018863196 0 -0.00013745814 0 0)
(-7.1051309e-09 -0.0026473379 0 -0.00026974782 0 0)
(-5.9616055e-09 0.0026473415 0 -0.00026974865 0 0)
(-7.3912962e-09 0.0018863191 0 -0.00013745945 0 0)
(2.3406089e-09 0.0011270902 0 -4.9402229e-05 0 0)
(1.2482685e-08 0.00037453045 0 -5.4939911e-06 0 0)
(1.2129147e-08 -0.00037453284 0 -5.4936518e-06 0 0)
(1.4050352e-09 -0.0011270914 0 -4.9401328e-05 0 0)
(-8.3963227e-09 -0.0018863186 0 -0.00013745842 0 0)
(-6.4603792e-09 -0.0026473397 0 -0.00026974808 0 0)
(-6.2241679e-09 0.0026473433 0 -0.00026974883 0 0)
(-6.9936062e-09 0.0018863181 0 -0.00013745957 0 0)
(2.1550993e-09 0.0011270875 0 -4.940209e-05 0 0)
(1.2145701e-08 0.00037452936 0 -5.4936366e-06 0 0)
(1.1825513e-08 -0.00037453148 0 -5.493344e-06 0 0)
(1.364178e-09 -0.0011270885 0 -4.9401323e-05 0 0)
(-7.830297e-09 -0.0018863176 0 -0.0001374587 0 0)
(-6.6647233e-09 -0.0026473417 0 -0.00026974834 0 0)
(-5.7098061e-09 0.0026473448 0 -0.00026974898 0 0)
(-7.1423992e-09 0.0018863172 0 -0.00013745968 0 0)
(2.1123329e-09 0.0011270854 0 -4.940196e-05 0 0)
(1.1818594e-08 0.00037452806 0 -5.4933232e-06 0 0)
(1.1571831e-08 -0.00037453007 0 -5.4930886e-06 0 0)
(1.4474983e-09 -0.0011270863 0 -4.9401328e-05 0 0)
(-7.8584696e-09 -0.0018863167 0 -0.00013745895 0 0)
(-6.0597167e-09 -0.0026473433 0 -0.00026974857 0 0)
(-5.9755111e-09 0.0026473466 0 -0.00026974914 0 0)
(-6.7511918e-09 0.0018863162 0 -0.00013745979 0 0)
(1.947004e-09 0.0011270827 0 -4.9401843e-05 0 0)
(1.1507115e-08 0.000374527 0 -5.4929962e-06 0 0)
(1.1277586e-08 -0.00037452879 0 -5.4927916e-06 0 0)
(1.3982358e-09 -0.0011270836 0 -4.9401317e-05 0 0)
(-7.3302855e-09 -0.0018863158 0 -0.00013745919 0 0)
(-6.2822482e-09 -0.0026473452 0 -0.0002697488 0 0)
(-5.4715147e-09 0.002647348 0 -0.00026974928 0 0)
(-6.8952268e-09 0.0018863153 0 -0.0001374599 0 0)
(1.92001e-09 0.0011270807 0 -4.9401733e-05 0 0)
(1.1210372e-08 0.00037452576 0 -5.4927133e-06 0 0)
(1.1047859e-08 -0.00037452748 0 -5.4925613e-06 0 0)
(1.4674574e-09 -0.0011270815 0 -4.9401312e-05 0 0)
(-7.3825355e-09 -0.0018863149 0 -0.00013745941 0 0)
(-5.7041917e-09 -0.0026473467 0 -0.000269749 0 0)
(-5.7354002e-09 0.0026473497 0 -0.00026974945 0 0)
(-6.5049512e-09 0.0018863144 0 -0.00013746003 0 0)
(1.7725211e-09 0.0011270782 0 -4.9401634e-05 0 0)
(1.0919005e-08 0.00037452473 0 -5.4924083e-06 0 0)
(1.0761076e-08 -0.00037452627 0 -5.492273e-06 0 0)
(1.409605e-09 -0.001127079 0 -4.9401294e-05 0 0)
(-6.8872876e-09 -0.001886314 0 -0.00013745963 0 0)
(-5.9398885e-09 -0.0026473485 0 -0.00026974921 0 0)
(-5.2366195e-09 0.0026473511 0 -0.00026974958 0 0)
(-6.6396848e-09 0.0018863136 0 -0.00013746014 0 0)
(1.7595903e-09 0.0011270763 0 -4.9401544e-05 0 0)
(1.0642781e-08 0.00037452354 0 -5.492146e-06 0 0)
(1.0543328e-08 -0.00037452505 0 -5.4920558e-06 0 0)
(1.4652409e-09 -0.001127077 0 -4.940128e-05 0 0)
(-6.955006e-09 -0.0018863131 0 -0.00013745983 0 0)
(-5.382151e-09 -0.0026473499 0 -0.00026974939 0 0)
(-5.4966713e-09 0.0026473528 0 -0.00026974974 0 0)
(-6.2487342e-09 0.0018863127 0 -0.00013746027 0 0)
(1.6275405e-09 0.0011270739 0 -4.9401461e-05 0 0)
(1.0367394e-08 0.00037452255 0 -5.4918587e-06 0 0)
(1.0262187e-08 -0.0003745239 0 -5.4917744e-06 0 0)
(1.3999253e-09 -0.0011270746 0 -4.9401255e-05 0 0)
(-6.4892636e-09 -0.0018863123 0 -0.00013746003 0 0)
(-5.6273949e-09 -0.0026473516 0 -0.00026974958 0 0)
(-5.0012954e-09 0.0026473541 0 -0.00026974987 0 0)
(-6.3733819e-09 0.0018863119 0 -0.0001374604 0 0)
(1.6260414e-09 0.0011270721 0 -4.9401387e-05 0 0)
(1.0106252e-08 0.00037452141 0 -5.4916116e-06 0 0)
(1.0051404e-08 -0.00037452277 0 -5.4915651e-06 0 0)
(1.4434459e-09 -0.0011270727 0 -4.9401234e-05 0 0)
(-6.5686678e-09 -0.0018863115 0 -0.00013746021 0 0)
(-5.0858664e-09 -0.002647353 0 -0.00026974975 0 0)
(-5.2570565e-09 0.0026473557 0 -0.00026975003 0 0)
(-5.9821515e-09 0.0018863111 0 -0.00013746054 0 0)
(1.5070062e-09 0.0011270698 0 -4.9401317e-05 0 0)
(9.8436435e-09 0.00037452044 0 -5.4913387e-06 0 0)
(9.7747906e-09 -0.00037452166 0 -5.4912892e-06 0 0)
(1.3723145e-09 -0.0011270704 0 -4.9401203e-05 0 0)
(-6.1237256e-09 -0.0018863107 0 -0.00013746039 0 0)
(-5.3378802e-09 -0.0026473546 0 -0.00026974993 0 0)
(-4.7647748e-09 0.0026473569 0 -0.00026975016 0 0)
(-6.0976045e-09 0.0018863104 0 -0.00013746066 0 0)
(1.5141752e-09 0.0011270681 0 -4.9401256e-05 0 0)
(9.5942984e-09 0.00037451936 0 -5.4911035e-06 0 0)
(9.5689566e-09 -0.00037452063 0 -5.4910857e-06 0 0)
(1.4056643e-09 -0.0011270686 0 -4.9401176e-05 0 0)
(-6.2133745e-09 -0.0018863099 0 -0.00013746056 0 0)
(-4.8096609e-09 -0.0026473558 0 -0.00026975008 0 0)
(-5.0165847e-09 0.0026473584 0 -0.00026975032 0 0)
(-5.7073788e-09 0.0018863096 0 -0.00013746081 0 0)
(1.4058239e-09 0.0011270659 0 -4.9401197e-05 0 0)
(9.3420946e-09 0.00037451842 0 -5.4908424e-06 0 0)
(9.2964911e-09 -0.00037451956 0 -5.4908149e-06 0 0)
(1.3304564e-09 -0.0011270664 0 -4.9401141e-05 0 0)
(-5.7856822e-09 -0.0018863092 0 -0.00013746073 0 0)
(-5.066305e-09 -0.0026473573 0 -0.00026975025 0 0)
(-4.5277385e-09 0.0026473596 0 -0.00026975045 0 0)
(-5.815312e-09 0.0018863089 0 -0.00013746094 0 0)
(1.4191441e-09 0.0011270643 0 -4.9401146e-05 0 0)
(9.1024672e-09 0.0003745174 0 -5.490617e-06 0 0)
(9.0949101e-09 -0.00037451861 0 -5.4906163e-06 0 0)
(1.3557001e-09 -0.0011270648 0 -4.940111e-05 0 0)
(-5.8827538e-09 -0.0018863084 0 -0.00013746089 0 0)
(-4.5492384e-09 -0.0026473586 0 -0.0002697504 0 0)
(-4.7763058e-09 0.0026473611 0 -0.0002697506 0 0)
(-5.4274053e-09 0.0018863082 0 -0.00013746109 0 0)
(1.3193961e-09 0.0011270622 0 -4.9401095e-05 0 0)
(8.8590107e-09 0.0003745165 0 -5.4903659e-06 0 0)
(8.8267774e-09 -0.00037451757 0 -5.4903506e-06 0 0)
(1.27802e-09 -0.0011270627 0 -4.9401072e-05 0 0)
(-5.4696866e-09 -0.0018863077 0 -0.00013746105 0 0)
(-4.8089232e-09 -0.00264736 0 -0.00026975056 0 0)
(-4.2914797e-09 0.0026473622 0 -0.00026975073 0 0)
(-5.5305275e-09 0.0018863075 0 -0.00013746122 0 0)
(1.3367762e-09 0.0011270606 0 -4.9401051e-05 0 0)
(8.6277966e-09 0.00037451553 0 -5.4901489e-06 0 0)
(8.6293654e-09 -0.0003745167 0 -5.4901568e-06 0 0)
(1.297094e-09 -0.0011270611 0 -4.9401038e-05 0 0)
(-5.5718135e-09 -0.001886307 0 -0.0001374612 0 0)
(-4.3014103e-09 -0.0026473611 0 -0.00026975069 0 0)
(-4.5376423e-09 0.0026473636 0 -0.00026975088 0 0)
(-5.144684e-09 0.0018863068 0 -0.00013746137 0 0)
(1.2438862e-09 0.0011270586 0 -4.9401007e-05 0 0)
(8.3920316e-09 0.00037451466 0 -5.4899066e-06 0 0)
(8.3661004e-09 -0.00037451569 0 -5.4898965e-06 0 0)
(1.2183095e-09 -0.0011270591 0 -4.9401e-05 0 0)
(-5.1712281e-09 -0.0018863064 0 -0.00013746135 0 0)
(-4.5630233e-09 -0.0026473625 0 -0.00026975085 0 0)
(-4.057463e-09 0.0026473646 0 -0.00026975101 0 0)
(-5.247038e-09 0.0018863061 0 -0.00013746151 0 0)
(1.2637081e-09 0.0011270572 0 -4.940097e-05 0 0)
(8.1684616e-09 0.00037451376 0 -5.4896971e-06 0 0)
(8.173073e-09 -0.0003745149 0 -5.4897076e-06 0 0)
(1.2328946e-09 -0.0011270577 0 -4.9400964e-05 0 0)
(-5.2767905e-09 -0.0018863057 0 -0.00013746149 0 0)
(-4.0639186e-09 -0.0026473636 0 -0.00026975098 0 0)
(-4.3020596e-09 0.002647366 0 -0.00026975116 0 0)
(-4.8623711e-09 0.0018863055 0 -0.00013746166 0 0)
(1.1762834e-09 0.0011270553 0 -4.940093e-05 0 0)
(7.9398045e-09 0.00037451292 0 -5.4894629e-06 0 0)
(7.9153834e-09 -0.00037451392 0 -5.4894534e-06 0 0)
(1.1541046e-09 -0.0011270557 0 -4.9400925e-05 0 0)
(-4.8870445e-09 -0.0018863051 0 -0.00013746164 0 0)
(-4.3267468e-09 -0.0026473649 0 -0.00026975113 0 0)
(-3.8270993e-09 0.0026473669 0 -0.00026975128 0 0)
(-4.964629e-09 0.0018863048 0 -0.0001374618 0 0)
(1.1973712e-09 0.0011270539 0 -4.9400897e-05 0 0)
(7.7234872e-09 0.00037451207 0 -5.4892604e-06 0 0)
(7.7271025e-09 -0.00037451319 0 -5.4892694e-06 0 0)
(1.1655832e-09 -0.0011270544 0 -4.9400889e-05 0 0)
(-4.9949984e-09 -0.0018863044 0 -0.00013746178 0 0)
(-3.8352673e-09 -0.0026473659 0 -0.00026975125 0 0)
(-4.0709059e-09 0.0026473682 0 -0.00026975143 0 0)
(-4.5851e-09 0.0018863043 0 -0.00013746194 0 0)
(1.1143439e-09 0.0011270521 0 -4.9400861e-05 0 0)
(7.5017006e-09 0.00037451127 0 -5.4890339e-06 0 0)
(7.4757452e-09 -0.00037451225 0 -5.4890219e-06 0 0)
(1.0876271e-09 -0.0011270525 0 -4.940085e-05 0 0)
(-4.6148991e-09 -0.0018863038 0 -0.00013746192 0 0)
(-4.0989157e-09 -0.0026473671 0 -0.00026975139 0 0)
(-3.6016423e-09 0.0026473691 0 -0.00026975154 0 0)
(-4.686221e-09 0.0018863037 0 -0.00013746208 0 0)
(1.1358952e-09 0.0011270508 0 -4.9400831e-05 0 0)
(7.2925026e-09 0.00037451048 0 -5.4888381e-06 0 0)
(7.2926315e-09 -0.00037451158 0 -5.4888433e-06 0 0)
(1.0970915e-09 -0.0011270513 0 -4.9400815e-05 0 0)
(-4.7246355e-09 -0.0018863032 0 -0.00013746205 0 0)
(-3.6145541e-09 -0.0026473681 0 -0.00026975151 0 0)
(-3.8453466e-09 0.0026473703 0 -0.00026975168 0 0)
(-4.3141513e-09 0.0018863031 0 -0.00013746222 0 0)
(1.0564738e-09 0.0011270491 0 -4.9400798e-05 0 0)
(7.0775842e-09 0.00037450971 0 -5.4886192e-06 0 0)
(7.0483371e-09 -0.00037451068 0 -5.4886031e-06 0 0)
(1.0205824e-09 -0.0011270495 0 -4.9400777e-05 0 0)
(-4.3533548e-09 -0.0018863027 0 -0.00013746219 0 0)
(-3.8788677e-09 -0.0026473692 0 -0.00026975165 0 0)
(-3.3821508e-09 0.0026473712 0 -0.0002697518 0 0)
(-4.4148052e-09 0.0018863025 0 -0.00013746235 0 0)
(1.07798e-09 0.0011270479 0 -4.9400771e-05 0 0)
(6.875536e-09 0.00037450897 0 -5.4884302e-06 0 0)
(6.8708135e-09 -0.00037451006 0 -5.48843e-06 0 0)
(1.028871e-09 -0.0011270484 0 -4.9400743e-05 0 0)
(-4.4645818e-09 -0.0018863021 0 -0.00013746232 0 0)
(-3.4013122e-09 -0.0026473701 0 -0.00026975176 0 0)
(-3.6263462e-09 0.0026473723 0 -0.00026975193 0 0)
(-4.05061e-09 0.001886302 0 -0.0001374625 0 0)
(1.001593e-09 0.0011270463 0 -4.940074e-05 0 0)
(6.6676291e-09 0.00037450825 0 -5.4882189e-06 0 0)
(6.6342459e-09 -0.0003745092 0 -5.4881978e-06 0 0)
(9.5423585e-10 -0.0011270467 0 -4.9400707e-05 0 0)
(-4.1015635e-09 -0.0018863016 0 -0.00013746245 0 0)
(-3.6663043e-09 -0.0026473713 0 -0.00026975189 0 0)
(-3.1694875e-09 0.0026473731 0 -0.00026975204 0 0)
(-4.1517727e-09 0.0018863015 0 -0.00013746262 0 0)
(1.0227628e-09 0.0011270452 0 -4.9400715e-05 0 0)
(6.4728505e-09 0.00037450755 0 -5.4880366e-06 0 0)
(6.4626983e-09 -0.00037450863 0 -5.4880306e-06 0 0)
(9.6197796e-10 -0.0011270456 0 -4.9400674e-05 0 0)
(-4.2142086e-09 -0.001886301 0 -0.00013746257 0 0)
(-3.1953722e-09 -0.0026473721 0 -0.000269752 0 0)
(-3.414677e-09 0.0026473742 0 -0.00026975217 0 0)
(-3.7956601e-09 0.0018863009 0 -0.00013746276 0 0)
(9.4900629e-10 0.0011270436 0 -4.9400686e-05 0 0)
(6.2721737e-09 0.00037450687 0 -5.487833e-06 0 0)
(6.2344351e-09 -0.00037450781 0 -5.4878068e-06 0 0)
(8.894989e-10 -0.001127044 0 -4.9400639e-05 0 0)
(-3.8590866e-09 -0.0018863005 0 -0.0001374627 0 0)
(-3.4611649e-09 -0.0026473731 0 -0.00026975213 0 0)
(-2.964332e-09 0.0026473749 0 -0.00026975228 0 0)
(-3.8981474e-09 0.0018863004 0 -0.00013746288 0 0)
(9.6970077e-10 0.0011270426 0 -4.9400662e-05 0 0)
(6.0848192e-09 0.00037450622 0 -5.4876575e-06 0 0)
(6.0691899e-09 -0.00037450727 0 -5.4876457e-06 0 0)