/*--------------------------------*- C++ -*----------------------------------*\
| =========                 |                                                 |
| \\      /  F ield         | OpenFOAM: The Open Source CFD Toolbox           |
|  \\    /   O peration     | Version:  5.x                                   |
|   \\  /    A nd           | Web:      www.OpenFOAM.org                      |
|    \\/     M anipulation  |                                                 |
\*---------------------------------------------------------------------------*/
FoamFile
{
    version     2.0;
    format      ascii;
    class       volVectorField;
    location    "2";
    object      U;
}
// * * * * * * * * * * * * * * * * * * * * * * * * * * * * * * * * * * * * * //

dimensions      [0 1 -1 0 0 0 0];

internalField   nonuniform List<vector> 
1920
(
(-1.2239132e-07 6.6222832e-08 0)
(-4.9610261e-07 4.8799076e-08 0)
(-7.886376e-07 -1.6064795e-08 0)
(-3.8150028e-07 -6.8508951e-08 0)
(3.8216955e-07 -6.9625566e-08 0)
(7.8903952e-07 -1.5052501e-08 0)
(4.9632192e-07 4.8129677e-08 0)
(1.2232054e-07 6.6462063e-08 0)
(-9.2584743e-08 2.2863368e-07 0)
(-1.1926447e-06 4.1544383e-07 0)
(-1.801059e-06 -5.1533507e-08 0)
(-9.0618572e-07 -6.0677069e-07 0)
(9.0777139e-07 -6.0462993e-07 0)
(1.8024273e-06 -5.3055728e-08 0)
(1.1928847e-06 4.1692461e-07 0)
(9.28689e-08 2.2826636e-07 0)
(-1.7673115e-07 6.2662233e-07 0)
(-1.7366194e-06 9.6890871e-07 0)
(-2.5767165e-06 -1.4520499e-07 0)
(-1.216066e-06 -1.4272998e-06 0)
(1.218466e-06 -1.430225e-06 0)
(2.5781737e-06 -1.4184345e-07 0)
(1.7376796e-06 9.6759719e-07 0)
(1.7652234e-07 6.2756061e-07 0)
(-2.1716867e-07 1.1403944e-06 0)
(-2.1618562e-06 1.6476627e-06 0)
(-3.0077736e-06 -2.8679259e-07 0)
(-1.4849474e-06 -2.5015865e-06 0)
(1.4874648e-06 -2.497098e-06 0)
(3.0099223e-06 -2.8930403e-07 0)
(2.1624526e-06 1.6511794e-06 0)
(2.1750545e-07 1.139949e-06 0)
(-2.6651627e-07 1.7498034e-06 0)
(-2.3283424e-06 2.4180558e-06 0)
(-3.3095565e-06 -4.7524721e-07 0)
(-1.5344357e-06 -3.6944983e-06 0)
(1.5370396e-06 -3.6986725e-06 0)
(3.3112184e-06 -4.6964381e-07 0)
(2.3295048e-06 2.4167255e-06 0)
(2.664005e-07 1.751562e-06 0)
(-2.5416547e-07 2.3993633e-06 0)
(-2.4215132e-06 3.2065371e-06 0)
(-3.3024585e-06 -6.6369066e-07 0)
(-1.6224501e-06 -4.9470988e-06 0)
(1.6245176e-06 -4.9411476e-06 0)
(3.3042028e-06 -6.6636218e-07 0)
(2.422099e-06 3.2116328e-06 0)
(2.543864e-07 2.3991421e-06 0)
(-2.6588787e-07 3.0380715e-06 0)
(-2.2977836e-06 3.9926194e-06 0)
(-3.2507181e-06 -8.6317783e-07 0)
(-1.5003271e-06 -6.1710111e-06 0)
(1.5018631e-06 -6.175561e-06 0)
(3.2517543e-06 -8.5633678e-07 0)
(2.2984391e-06 3.9916782e-06 0)
(2.6589708e-07 3.040381e-06 0)
(-2.2433583e-07 3.6429043e-06 0)
(-2.1624433e-06 4.726695e-06 0)
(-2.958023e-06 -1.0416949e-06 0)
(-1.4511489e-06 -7.3363354e-06 0)
(1.4518764e-06 -7.330014e-06 0)
(2.9586084e-06 -1.0440456e-06 0)
(2.1627278e-06 4.7324331e-06 0)
(2.2435515e-07 3.6429493e-06 0)
(-2.1155486e-07 4.1852811e-06 0)
(-1.8863971e-06 5.4018518e-06 0)
(-2.6868031e-06 -1.2105992e-06 0)
(-1.245437e-06 -8.3831046e-06 0)
(1.2453724e-06 -8.387329e-06 0)
(2.6868237e-06 -1.2037396e-06 0)
(1.886328e-06 5.4013286e-06 0)
(2.1165519e-07 4.1876864e-06 0)
(-1.6354318e-07 4.6591492e-06 0)
(-1.6424747e-06 5.9885648e-06 0)
(-2.2785755e-06 -1.3458013e-06 0)
(-1.1197247e-06 -9.310416e-06 0)
(1.1189606e-06 -9.3046898e-06 0)
(2.2779088e-06 -1.3476737e-06 0)
(1.6423692e-06 5.9939324e-06 0)
(1.6339205e-07 4.6593406e-06 0)
(-1.4050471e-07 5.0524008e-06 0)
(-1.3349279e-06 6.4921893e-06 0)
(-1.9285475e-06 -1.4645248e-06 0)
(-9.0340583e-07 -1.0086505e-05 0)
(9.0192772e-07 -1.0090003e-05 0)
(1.9276388e-06 -1.4586636e-06 0)
(1.3342651e-06 6.4918885e-06 0)
(1.4064576e-07 5.0544851e-06 0)
(-1.0012273e-07 5.3717324e-06 0)
(-1.0789415e-06 6.9016249e-06 0)
(-1.533091e-06 -1.5504752e-06 0)
(-7.5542767e-07 -1.0730062e-05 0)
(7.535364e-07 -1.0725531e-05 0)
(1.5315237e-06 -1.5519593e-06 0)
(1.0785177e-06 6.905879e-06 0)
(9.9886767e-08 5.3719065e-06 0)
(-7.6820093e-08 5.6171935e-06 0)
(-8.1757437e-07 7.2309485e-06 0)
(-1.2074159e-06 -1.6204818e-06 0)
(-5.755441e-07 -1.1232463e-05 0)
(5.7315865e-07 -1.1235146e-05 0)
(1.2058831e-06 -1.616207e-06 0)
(8.16586e-07 7.2305987e-06 0)
(7.6955576e-08 5.6187035e-06 0)
(-4.9532706e-08 5.8015341e-06 0)
(-6.0800085e-07 7.4807206e-06 0)
(-8.9818517e-07 -1.6648675e-06 0)
(-4.4447263e-07 -1.1622133e-05 0)
(4.4191496e-07 -1.1618998e-05 0)
(8.9613708e-07 -1.6661977e-06 0)
(6.0736392e-07 7.4834951e-06 0)
(4.9291368e-08 5.801551e-06 0)
(-3.1528299e-08 5.9309867e-06 0)
(-4.2521154e-07 7.668448e-06 0)
(-6.5136741e-07 -1.6981151e-06 0)
(-3.1953524e-07 -1.1903823e-05 0)
(3.1666671e-07 -1.1905836e-05 0)
(6.4946765e-07 -1.6956118e-06 0)
(4.2410641e-07 7.6677786e-06 0)
(3.1625998e-08 5.9318308e-06 0)
(-1.6928488e-08 6.0190594e-06 0)
(-2.8317448e-07 7.7996922e-06 0)
(-4.4873892e-07 -1.7144588e-06 0)
(-2.2369944e-07 -1.2106355e-05 0)
(2.2076497e-07 -1.2104539e-05 0)
(4.4646707e-07 -1.7159368e-06 0)
(2.8238202e-07 7.8009039e-06 0)
(1.6724113e-08 6.0188086e-06 0)
(-5.6294879e-09 6.0731707e-06 0)
(-1.7702395e-07 7.8908907e-06 0)
(-2.9119226e-07 -1.7251382e-06 0)
(-1.5084985e-07 -1.2239064e-05 0)
(1.4771226e-07 -1.2240672e-05 0)
(2.8904724e-07 -1.7243518e-06 0)
(1.7589067e-07 7.8896451e-06 0)
(5.6739692e-09 6.0733448e-06 0)
(-3.1733871e-10 6.104267e-06 0)
(-9.6497729e-08 7.9478818e-06 0)
(-1.8042736e-07 -1.7264134e-06 0)
(-9.1164318e-08 -1.2325265e-05 0)
(8.7985826e-08 -1.2324565e-05 0)
(1.7803466e-07 -1.7283499e-06 0)
(9.5570243e-08 7.9475747e-06 0)
(1.575548e-10 6.1036503e-06 0)
(5.5147551e-09 6.1181394e-06 0)
(-4.7410042e-08 7.9833811e-06 0)
(-9.5540336e-08 -1.726136e-06 0)
(-5.6981061e-08 -1.2373336e-05 0)
(5.3686081e-08 -1.2374821e-05 0)
(9.3222152e-08 -1.7269282e-06 0)
(4.6272727e-08 7.9813284e-06 0)
(-5.5228802e-09 6.1176612e-06 0)
(5.4324083e-09 6.1220514e-06 0)
(-1.0078901e-08 8.0014077e-06 0)
(-4.7849793e-08 -1.7216045e-06 0)
(-2.4842421e-08 -1.2399131e-05 0)
(2.155094e-08 -1.2399333e-05 0)
(4.541855e-08 -1.7242598e-06 0)
(9.0555026e-09 7.9996601e-06 0)
(-5.555646e-09 6.1209841e-06 0)
(7.938391e-09 6.1193978e-06 0)
(4.7044145e-09 8.0103185e-06 0)
(-1.0129677e-08 -1.7177572e-06 0)
(-1.4283572e-08 -1.2407957e-05 0)
(1.1006295e-08 -1.2409539e-05 0)
(7.7733972e-09 -1.7199729e-06 0)
(-5.8062952e-09 8.0072952e-06 0)
(-7.9856815e-09 6.1182904e-06 0)
(5.4802816e-09 6.1141659e-06 0)
(1.774696e-08 8.0120805e-06 0)
(2.105137e-09 -1.7125455e-06 0)
(1.043786e-09 -1.2409022e-05 0)
(-4.2058836e-09 -1.2409941e-05 0)
(-4.410609e-09 -1.7160692e-06 0)
(-1.8773565e-08 8.0090007e-06 0)
(-5.5740299e-09 6.1126021e-06 0)
(6.5243303e-09 6.1077907e-06 0)
(1.6093464e-08 8.0114056e-06 0)
(1.5053103e-08 -1.7087782e-06 0)
(-2.4112289e-10 -1.2404721e-05 0)
(-2.7246596e-09 -1.2406528e-05 0)
(-1.7217677e-08 -1.7122354e-06 0)
(-1.7072317e-08 8.0073719e-06 0)
(-6.5902839e-09 6.1061027e-06 0)
(3.4809256e-09 6.1020233e-06 0)
(1.8584087e-08 8.0088202e-06 0)
(1.1414222e-08 -1.7049299e-06 0)
(6.8746946e-09 -1.239962e-05 0)
(-9.563453e-09 -1.2401092e-05 0)
(-1.3354386e-08 -1.7093185e-06 0)
(-1.9481282e-08 8.0045867e-06 0)
(-3.5454453e-09 6.0999843e-06 0)
(4.2126458e-09 6.0971389e-06 0)
(1.1348611e-08 8.0065901e-06 0)
(1.4382502e-08 -1.7024622e-06 0)
(1.0324632e-09 -1.2394212e-05 0)
(-3.3398941e-09 -1.2396269e-05 0)
(-1.6086876e-08 -1.7069183e-06 0)
(-1.2091035e-08 8.001662e-06 0)
(-4.2764684e-09 6.0949691e-06 0)
(1.3759382e-09 6.0936685e-06 0)
(1.1002569e-08 8.0045187e-06 0)
(5.8749926e-09 -1.7002972e-06 0)
(5.194192e-09 -1.2390398e-05 0)
(-7.0825171e-09 -1.2392267e-05 0)
(-7.212595e-09 -1.7053928e-06 0)
(-1.1643351e-08 7.9994065e-06 0)
(-1.4074704e-09 6.0912521e-06 0)
(2.2981732e-09 6.0913955e-06 0)
(3.3185143e-09 8.0035108e-06 0)
(6.5475851e-09 -1.6991514e-06 0)
(-1.5997022e-09 -1.2387779e-05 0)
(2.2219353e-10 -1.2390029e-05 0)
(-7.5816495e-09 -1.704294e-06 0)
(-3.7331448e-09 7.9979469e-06 0)
(-2.3447048e-09 6.0888959e-06 0)
(-1.3508377e-10 6.090334e-06 0)
(3.4104462e-09 8.0031468e-06 0)
(-2.0094025e-09 -1.6983017e-06 0)
(2.1194689e-09 -1.2386985e-05 0)
(-3.0062456e-09 -1.2389091e-05 0)
(1.4186741e-09 -1.7038306e-06 0)
(-3.7178108e-09 7.9975115e-06 0)
(1.3886359e-10 6.0876966e-06 0)
(1.0864882e-09 6.0901651e-06 0)
(-3.0466478e-09 8.0037069e-06 0)
(-6.4026221e-10 -1.6981033e-06 0)
(-4.2992433e-09 -1.2387374e-05 0)
(3.961058e-09 -1.2389715e-05 0)
(3.6175697e-10 -1.7035767e-06 0)
(2.9942233e-09 7.9978521e-06 0)
(-1.1089889e-09 6.0875207e-06 0)
(-1.0054484e-09 6.0907639e-06 0)
(-1.6924659e-09 8.0047953e-06 0)
(-7.857382e-09 -1.6980846e-06 0)
(-1.7578136e-10 -1.2389104e-05 0)
(3.0939393e-10 -1.239129e-05 0)
(8.0231935e-09 -1.7037215e-06 0)
(1.7265261e-09 7.9990214e-06 0)
(1.0422565e-09 6.0880862e-06 0)
(4.5664466e-10 6.0918689e-06 0)
(-6.8357577e-09 8.0064707e-06 0)
(-5.1792649e-09 -1.6984475e-06 0)
(-5.9933685e-09 -1.2391582e-05 0)
(6.6229146e-09 -1.2393891e-05 0)
(5.6041966e-09 -1.7039009e-06 0)
(7.1157708e-09 8.0006842e-06 0)
(-4.562657e-10 6.089264e-06 0)
(-1.4176583e-09 6.0933695e-06 0)
(-4.3958383e-09 8.0084357e-06 0)
(-1.1115408e-08 -1.698879e-06 0)
(-1.3865446e-09 -1.2394858e-05 0)
(2.3925306e-09 -1.2396986e-05 0)
(1.1924483e-08 -1.7043122e-06 0)
(4.7182804e-09 8.0028765e-06 0)
(1.4805704e-09 6.0908195e-06 0)
(1.9158074e-10 6.0950927e-06 0)
(-8.6267398e-09 8.0107074e-06 0)
(-7.3998348e-09 -1.6995263e-06 0)
(-6.7598211e-09 -1.2398475e-05 0)
(8.1460933e-09 -1.2400645e-05 0)
(8.3719322e-09 -1.7046617e-06 0)
(9.1611399e-09 8.0052982e-06 0)
(-1.7476556e-10 6.0926811e-06 0)
(-1.5674314e-09 6.0969797e-06 0)
(-5.5066122e-09 8.0130784e-06 0)
(-1.2497353e-08 -1.7001655e-06 0)
(-1.8321925e-09 -1.2402501e-05 0)
(3.4565706e-09 -1.2404462e-05 0)
(1.3759077e-08 -1.7051465e-06 0)
(6.02732e-09 8.0080081e-06 0)
(1.646911e-09 6.0946857e-06 0)
(1.1465997e-10 6.0989264e-06 0)
(-9.2297996e-09 8.0155853e-06 0)
(-8.1710473e-09 -1.7009303e-06 0)
(-6.9652476e-09 -1.2406598e-05 0)
(8.8282944e-09 -1.2408547e-05 0)
(9.4832453e-09 -1.7055343e-06 0)
(9.9182864e-09 8.0107726e-06 0)
(-8.9959688e-11 6.0968127e-06 0)
(-1.5921426e-09 6.1009188e-06 0)
(-5.7658164e-09 8.0180794e-06 0)
(-1.2827061e-08 -1.7016413e-06 0)
(-1.8881468e-09 -1.2410876e-05 0)
(3.8433747e-09 -1.2412602e-05 0)
(1.4327446e-08 -1.7060099e-06 0)
(6.3845927e-09 8.0136694e-06 0)
(1.6785118e-09 6.0989574e-06 0)
(1.173788e-10 6.1028939e-06 0)
(-9.2527727e-09 8.0206255e-06 0)
(-8.2165002e-09 -1.7024327e-06 0)
(-6.923152e-09 -1.2415082e-05 0)
(8.9814708e-09 -1.2416765e-05 0)
(9.6617046e-09 -1.7063876e-06 0)
(9.9970778e-09 8.0165258e-06 0)
(-9.2857443e-11 6.1011294e-06 0)
(-1.5688409e-09 6.104866e-06 0)
(-5.652622e-09 8.023106e-06 0)
(-1.268146e-08 -1.7031458e-06 0)
(-1.8090499e-09 -1.2419352e-05 0)
(3.8323772e-09 -1.2420811e-05 0)
(1.4226539e-08 -1.7068328e-06 0)
(6.2801111e-09 8.0194256e-06 0)
(1.6541204e-09 6.1032628e-06 0)
(1.449335e-10 6.106792e-06 0)
(-9.0491932e-09 8.0256069e-06 0)
(-7.9773374e-09 -1.7039181e-06 0)
(-6.8180178e-09 -1.2423486e-05 0)
(8.8354236e-09 -1.2424892e-05 0)
(9.3831298e-09 -1.7071936e-06 0)
(9.7692179e-09 8.0222425e-06 0)
(-1.2665884e-10 6.1053806e-06 0)
(-1.533415e-09 6.1087008e-06 0)
(-5.4184768e-09 8.0280232e-06 0)
(-1.2377413e-08 -1.7045999e-06 0)
(-1.722248e-09 -1.2427635e-05 0)
(3.6103703e-09 -1.2428828e-05 0)
(1.3818428e-08 -1.7076139e-06 0)
(5.9877529e-09 8.0250566e-06 0)
(1.6121832e-09 6.1074401e-06 0)
(1.7465755e-10 6.110557e-06 0)
(-8.7886392e-09 8.0304533e-06 0)
(-7.6703379e-09 -1.7053314e-06 0)
(-6.729363e-09 -1.2431627e-05 0)
(8.5375738e-09 -1.243277e-05 0)
(8.9151999e-09 -1.7079663e-06 0)
(9.429451e-09 8.0277741e-06 0)
(-1.6621627e-10 6.1094678e-06 0)
(-1.4992066e-09 6.1123961e-06 0)
(-5.1713884e-09 8.0327957e-06 0)
(-1.2054924e-08 -1.7059677e-06 0)
(-1.6702983e-09 -1.2435615e-05 0)
(3.2910276e-09 -1.2436567e-05 0)
(1.3296366e-08 -1.708374e-06 0)
(5.6411112e-09 8.0304665e-06 0)
(1.5686247e-09 6.1114344e-06 0)
(1.9977424e-10 6.1141842e-06 0)
(-8.5357187e-09 8.0351544e-06 0)
(-7.3779534e-09 -1.7066497e-06 0)
(-6.6748956e-09 -1.2439446e-05 0)
(8.1760196e-09 -1.244036e-05 0)
(8.3925724e-09 -1.7087285e-06 0)
(9.067407e-09 8.0330631e-06 0)
(-2.0249342e-10 6.1133648e-06 0)
(-1.46926e-09 6.1159588e-06 0)
(-4.9450687e-09 8.0374278e-06 0)
(-1.1757795e-08 -1.7072361e-06 0)
(-1.6524817e-09 -1.2443268e-05 0)
(2.9400703e-09 -1.2444016e-05 0)
(1.2753358e-08 -1.709134e-06 0)
(5.2969391e-09 8.0356246e-06 0)
(1.5285949e-09 6.1152378e-06 0)
(2.1996165e-10 6.1176859e-06 0)
(-8.3050674e-09 8.0397209e-06 0)
(-7.1167259e-09 -1.7078668e-06 0)
(-6.6445385e-09 -1.2446939e-05 0)
(7.8011091e-09 -1.2447667e-05 0)
(7.8761508e-09 -1.7094976e-06 0)
(8.7184203e-09 8.0380973e-06 0)
(-2.3347676e-10 6.1170749e-06 0)
(-1.4428655e-09 6.1194028e-06 0)
(-4.7413504e-09 8.0419321e-06 0)
(-1.1487062e-08 -1.7084042e-06 0)
(-1.6522359e-09 -1.2450603e-05 0)
(2.5939111e-09 -1.2451193e-05 0)
(1.2229255e-08 -1.709907e-06 0)
(4.9747579e-09 8.0405309e-06 0)
(1.4928283e-09 6.1188602e-06 0)
(2.3678902e-10 6.121075e-06 0)
(-8.0921803e-09 8.0441649e-06 0)
(-6.8776689e-09 -1.7089853e-06 0)
(-6.6206435e-09 -1.2454123e-05 0)
(7.4401482e-09 -1.2454711e-05 0)
(7.3895775e-09 -1.7102826e-06 0)
(8.3927653e-09 8.0428845e-06 0)
(-2.5968457e-10 6.120611e-06 0)
(-1.4184963e-09 6.1227388e-06 0)
(-4.5519291e-09 8.046318e-06 0)
(-1.1229936e-08 -1.7094773e-06 0)
(-1.6515665e-09 -1.2457637e-05 0)
(2.2713179e-09 -1.2458114e-05 0)
(1.1737863e-08 -1.7106975e-06 0)
(4.6779731e-09 8.0451975e-06 0)
(1.4606089e-09 6.1223156e-06 0)
(2.5189038e-10 6.1243594e-06 0)
(-7.8880597e-09 8.0484925e-06 0)
(-6.6462037e-09 -1.7100128e-06 0)
(-6.5875979e-09 -1.2461017e-05 0)
(7.1064629e-09 -1.2461508e-05 0)
(6.9389563e-09 -1.7110844e-06 0)
(8.0904398e-09 8.0474398e-06 0)
(-2.8225502e-10 6.1239873e-06 0)
(-1.3948689e-09 6.125972e-06 0)
(-4.3677671e-09 8.0505883e-06 0)
(-1.0972915e-08 -1.7104642e-06 0)
(-1.6369126e-09 -1.2464389e-05 0)
(1.9803858e-09 -1.2464794e-05 0)
(1.1281055e-08 -1.7115033e-06 0)
(4.4039441e-09 8.049641e-06 0)
(1.4309638e-09 6.1256174e-06 0)
(2.6643239e-10 6.127542e-06 0)
(-7.6849533e-09 8.0527036e-06 0)
(-6.4101939e-09 -1.7109589e-06 0)
(-6.5350694e-09 -1.2467636e-05 0)
(6.8049082e-09 -1.2468067e-05 0)
(6.5227023e-09 -1.7118984e-06 0)
(7.8079355e-09 8.0517798e-06 0)
(-3.0226497e-10 6.1272157e-06 0)
(-1.3711758e-09 6.1291032e-06 0)
(-4.1822387e-09 8.0547404e-06 0)
(-1.0706367e-08 -1.7113751e-06 0)
(-1.6004072e-09 -1.2470873e-05 0)
(1.7227881e-09 -1.247124e-05 0)
(1.0855683e-08 -1.7123182e-06 0)
(4.1483592e-09 8.0538772e-06 0)
(1.4030572e-09 6.1287765e-06 0)
(2.8109185e-10 6.1306219e-06 0)
(-7.4778704e-09 8.0567935e-06 0)
(-6.1620766e-09 -1.7118341e-06 0)
(-6.4580834e-09 -1.2473991e-05 0)
(6.5353223e-09 -1.2474394e-05 0)
(6.1362512e-09 -1.7127172e-06 0)
(7.5410743e-09 8.0559198e-06 0)
(-3.2055607e-10 6.1303061e-06 0)
(-1.3470219e-09 6.1321307e-06 0)
(-3.99155e-09 8.0587681e-06 0)
(-1.042518e-08 -1.7122201e-06 0)
(-1.5391028e-09 -1.2477098e-05 0)
(1.4964935e-09 -1.2477454e-05 0)
(1.045687e-08 -1.7131338e-06 0)
(3.9069655e-09 8.0579205e-06 0)
(1.3762706e-09 6.1318014e-06 0)
(2.9618136e-10 6.1335966e-06 0)
(-7.2644068e-09 8.0607552e-06 0)
(-5.8985211e-09 -1.7126482e-06 0)
(-6.3558598e-09 -1.2480092e-05 0)
(6.2947763e-09 -1.2480491e-05 0)
(5.7742761e-09 -1.7135322e-06 0)
(7.2860817e-09 8.0598729e-06 0)
(-3.3773563e-10 6.1332658e-06 0)
(-1.3222947e-09 6.1350511e-06 0)
(-3.7942036e-09 8.0626636e-06 0)
(-1.012792e-08 -1.7130085e-06 0)
(-1.4535723e-09 -1.2483072e-05 0)
(1.2975641e-09 -1.2483437e-05 0)
(1.0079551e-08 -1.7139416e-06 0)
(3.6761701e-09 8.0617827e-06 0)
(1.3501831e-09 6.1346983e-06 0)
(3.1178279e-10 6.1364624e-06 0)
(-7.0440748e-09 8.0645808e-06 0)
(-5.6193246e-09 -1.71341e-06 0)
(-6.2304048e-09 -1.2485943e-05 0)
(6.079063e-09 -1.2486354e-05 0)
(5.4317218e-09 -1.7143349e-06 0)
(7.039924e-09 8.0636497e-06 0)
(-3.5422161e-10 6.1361e-06 0)
(-1.2970494e-09 6.1378608e-06 0)
(-3.5902805e-09 8.0664193e-06 0)
(-9.8156797e-09 -1.7137486e-06 0)
(-1.3465494e-09 -1.2488798e-05 0)
(1.1213437e-09 -1.2489185e-05 0)
(9.7191923e-09 -1.7147334e-06 0)
(3.453185e-09 8.0654734e-06 0)
(1.3245289e-09 6.1374718e-06 0)
(3.2784827e-10 6.139216e-06 0)
(-6.8176225e-09 8.068263e-06 0)
(-5.3262814e-09 -1.7141271e-06 0)
(-6.0852878e-09 -1.2491549e-05 0)
(5.8836595e-09 -1.2491983e-05 0)
(5.1042688e-09 -1.7151179e-06 0)
(6.8003547e-09 8.0672587e-06 0)
(-3.7028805e-10 6.1388127e-06 0)
(-1.2714276e-09 6.1405568e-06 0)
(-3.3808205e-09 8.0700283e-06 0)
(-9.4910452e-09 -1.7144472e-06 0)
(-1.221853e-09 -1.2494281e-05 0)
(9.6321044e-10 -1.2494698e-05 0)
(9.3720876e-09 -1.7155025e-06 0)
(3.2359992e-09 8.0689999e-06 0)
(1.2991586e-09 6.1401254e-06 0)
(3.4426608e-10 6.1418545e-06 0)
(-6.5864975e-09 8.0717956e-06 0)
(-5.0222783e-09 -1.7148055e-06 0)
(-5.9247332e-09 -1.2496912e-05 0)
(5.7043102e-09 -1.2497375e-05 0)
(4.7885009e-09 -1.715875e-06 0)
(6.5658473e-09 8.0707065e-06 0)
(-3.8610214e-10 6.1414069e-06 0)
(-1.2456073e-09 6.1431366e-06 0)
(-3.1673674e-09 8.0734853e-06 0)
(-9.1573319e-09 -1.7151096e-06 0)
(-1.0836367e-09 -1.2499522e-05 0)
(8.190096e-10 -1.2499972e-05 0)
(9.035435e-09 -1.7162432e-06 0)
(3.0232844e-09 8.0723681e-06 0)
(1.2740079e-09 6.1426615e-06 0)
(3.6089996e-10 6.1443759e-06 0)
(-6.3524716e-09 8.075174e-06 0)
(-4.7106567e-09 -1.7154501e-06 0)
(-5.7530186e-09 -1.2502036e-05 0)
(5.5373367e-09 -1.2502529e-05 0)
(4.4819109e-09 -1.7166014e-06 0)
(6.3354874e-09 8.0739983e-06 0)
(-4.017526e-10 6.1438848e-06 0)
(-1.2197728e-09 6.1455987e-06 0)
(-2.9516637e-09 8.0767865e-06 0)
(-8.8180652e-09 -1.71574e-06 0)
(-9.3591868e-10 -1.2504524e-05 0)
(6.8525946e-10 -1.2505008e-05 0)
(8.7072916e-09 -1.7169516e-06 0)
(2.8142773e-09 8.0755826e-06 0)
(1.249073e-09 6.1450823e-06 0)
(3.7761095e-10 6.1467791e-06 0)
(-6.1173961e-09 8.0783955e-06 0)
(-4.3948009e-09 -1.7160643e-06 0)
(-5.5741194e-09 -1.2506921e-05 0)
(5.3797588e-09 -1.2507444e-05 0)
(4.1828145e-09 -1.7172937e-06 0)
(6.1088523e-09 8.0771382e-06 0)
(-4.1727179e-10 6.1462482e-06 0)
(-1.1940993e-09 6.1479425e-06 0)
(-2.7354583e-09 8.0799298e-06 0)
(-8.47666e-09 -1.7163415e-06 0)
(-7.8232244e-10 -1.2509291e-05 0)
(5.5920451e-10 -1.2509805e-05 0)
(8.3864598e-09 -1.7176248e-06 0)
(2.608658e-09 8.0786473e-06 0)
(1.224391e-09 6.1473894e-06 0)
(3.942686e-10 6.1490642e-06 0)
(-5.8830553e-09 8.0814586e-06 0)
(-4.0778938e-09 -1.716651e-06 0)
(-5.3915288e-09 -1.2511572e-05 0)
(5.2292955e-09 -1.251212e-05 0)
(3.890219e-09 -1.7179496e-06 0)
(5.8858917e-09 8.0801299e-06 0)
(-4.3265319e-10 6.148499e-06 0)
(-1.1687456e-09 6.1501683e-06 0)
(-2.5203955e-09 8.0829148e-06 0)
(-8.1362407e-09 -1.7169164e-06 0)
(-6.2596212e-10 -1.2513823e-05 0)
(4.3877575e-10 -1.2514365e-05 0)
(8.0723451e-09 -1.7182611e-06 0)
(2.4064348e-09 8.0815655e-06 0)
(1.2000248e-09 6.1495848e-06 0)
(4.1075599e-10 6.1512318e-06 0)
(-5.6510832e-09 8.0843638e-06 0)
(-3.7627883e-09 -1.7172118e-06 0)
(-5.2081947e-09 -1.2515991e-05 0)
(5.0842954e-09 -1.2516561e-05 0)
(3.6036755e-09 -1.7185681e-06 0)
(5.6668189e-09 8.0829765e-06 0)
(-4.4786519e-10 6.150639e-06 0)
(-1.1438505e-09 6.1522774e-06 0)
(-2.3079546e-09 8.0857425e-06 0)
(-7.7995532e-09 -1.7174662e-06 0)
(-4.6941762e-10 -1.2518127e-05 0)
(3.225016e-10 -1.2518689e-05 0)
(7.7648093e-09 -1.7188598e-06 0)
(2.2078424e-09 8.0843402e-06 0)
(1.1760512e-09 6.1516702e-06 0)
(4.2697175e-10 6.1532834e-06 0)
(-5.4229215e-09 8.0871126e-06 0)
(-3.4519518e-09 -1.7177483e-06 0)
(-5.0265244e-09 -1.2520182e-05 0)
(4.9436363e-09 -1.2520768e-05 0)
(3.3231355e-09 -1.7191487e-06 0)
(5.4520164e-09 8.0856811e-06 0)
(-4.6286178e-10 6.1526701e-06 0)
(-1.1195327e-09 6.1542715e-06 0)
(-2.0994217e-09 8.0884149e-06 0)
(-7.4689351e-09 -1.717992e-06 0)
(-3.1476098e-10 -1.2522205e-05 0)
(2.0940012e-10 -1.2522783e-05 0)
(7.4640335e-09 -1.7194208e-06 0)
(2.0132544e-09 8.0869745e-06 0)
(1.1525515e-09 6.1536478e-06 0)
(4.4283023e-10 6.1552213e-06 0)
(-5.1998034e-09 8.0897077e-06 0)
(-3.1474549e-09 -1.7182613e-06 0)
(-4.8484265e-09 -1.252415e-05 0)
(4.8066162e-09 -1.2524747e-05 0)
(3.048822e-09 -1.7196917e-06 0)
(5.2419587e-09 8.0882468e-06 0)
(-4.7759058e-10 6.1545945e-06 0)
(-1.0958906e-09 6.1561533e-06 0)
(-1.8958822e-09 8.0909353e-06 0)
(-7.1463197e-09 -1.7184947e-06 0)
(-1.6360781e-10 -1.2526062e-05 0)
(9.8871154e-11 -1.2526651e-05 0)
(7.1704006e-09 -1.7199448e-06 0)
(1.8231146e-09 8.0894717e-06 0)
(1.129605e-09 6.15552e-06 0)
(4.5826087e-10 6.1570484e-06 0)
(-4.9827531e-09 8.0921527e-06 0)
(-2.8509855e-09 -1.7187515e-06 0)
(-4.6753694e-09 -1.2527901e-05 0)
(4.6728501e-09 -1.2528503e-05 0)
(2.7811223e-09 -1.7201981e-06 0)
(5.037151e-09 8.0906768e-06 0)
(-4.9199854e-10 6.1564148e-06 0)
(-1.0730038e-09 6.1579258e-06 0)
(-1.6982244e-09 8.0933078e-06 0)
(-6.8332581e-09 -1.7189747e-06 0)
(-1.7177642e-11 -1.2529705e-05 0)
(-9.4009812e-12 -1.2530298e-05 0)
(6.8843995e-09 -1.7204328e-06 0)
(1.6378834e-09 8.0918349e-06 0)
(1.1072847e-09 6.1572892e-06 0)
(4.7320736e-10 6.1587678e-06 0)
(-4.7725933e-09 8.0944521e-06 0)
(-2.5638756e-09 -1.7192193e-06 0)
(-4.5084428e-09 -1.253144e-05 0)
(4.5421811e-09 -1.2532042e-05 0)
(2.5205027e-09 -1.7206691e-06 0)
(4.8380844e-09 8.0929747e-06 0)
(-5.0603616e-10 6.1581336e-06 0)
(-1.0509342e-09 6.1595924e-06 0)
(-1.5071495e-09 8.0955369e-06 0)
(-6.5309506e-09 -1.7194325e-06 0)
(1.2364562e-10 -1.2533139e-05 0)
(-1.1552989e-10 -1.2533732e-05 0)
(6.6065517e-09 -1.7208861e-06 0)
(1.4579984e-09 8.094068e-06 0)
(1.0856543e-09 6.1589584e-06 0)
(4.8762648e-10 6.1603832e-06 0)
(-4.5699587e-09 8.0966107e-06 0)
(-2.2871349e-09 -1.7196651e-06 0)
(-4.3484176e-09 -1.2534773e-05 0)
(4.4146067e-09 -1.2535371e-05 0)
(2.2674439e-09 -1.721106e-06 0)
(4.6452042e-09 8.0951441e-06 0)
(-5.1965986e-10 6.1597539e-06 0)
(-1.0297276e-09 6.161157e-06 0)
(-1.323186e-09 8.097628e-06 0)
(-6.2402825e-09 -1.7198684e-06 0)
(2.5825795e-10 -1.2536372e-05 0)
(-2.1949374e-10 -1.2536959e-05 0)
(6.3373571e-09 -1.7213064e-06 0)
(1.2838483e-09 8.0961745e-06 0)
(1.0647663e-09 6.1605307e-06 0)
(5.01487e-10 6.1618984e-06 0)
(-4.3753114e-09 8.098634e-06 0)
(-2.0214857e-09 -1.7200892e-06 0)
(-4.195799e-09 -1.2537908e-05 0)
(4.2902211e-09 -1.2538497e-05 0)
(2.0223952e-09 -1.7215107e-06 0)
(4.4588887e-09 8.0971889e-06 0)
(-5.3283355e-10 6.1612789e-06 0)
(-1.0094149e-09 6.1626235e-06 0)
(-1.1467054e-09 8.0995865e-06 0)
(-5.9618602e-09 -1.7202828e-06 0)
(3.8628578e-10 -1.253941e-05 0)
(-3.211871e-10 -1.2539988e-05 0)
(6.0772571e-09 -1.7216954e-06 0)
(1.1157562e-09 8.0981586e-06 0)
(1.0446616e-09 6.1620094e-06 0)
(5.1476843e-10 6.1633177e-06 0)
(-4.1889585e-09 8.1005276e-06 0)
(-1.7673977e-09 -1.720492e-06 0)
(-4.0508747e-09 -1.2540852e-05 0)
(4.1691709e-09 -1.2541429e-05 0)
(1.7857433e-09 -1.7218849e-06 0)
(4.2794382e-09 8.0991134e-06 0)
(-5.4552922e-10 6.162712e-06 0)
(-9.9001403e-10 6.1639961e-06 0)
(-9.7793877e-10 8.1014182e-06 0)
(-5.6960459e-09 -1.720676e-06 0)
(5.075428e-10 -1.254226e-05 0)
(-4.2046002e-10 -1.2542825e-05 0)
(5.8266108e-09 -1.7220548e-06 0)
(9.5397029e-10 8.1000245e-06 0)
(1.0253698e-09 6.1633978e-06 0)
(5.274601e-10 6.1646452e-06 0)
(-4.011069e-09 8.1022974e-06 0)
(-1.5251217e-09 -1.7208738e-06 0)
(-3.9137549e-09 -1.2543613e-05 0)
(4.0516223e-09 -1.2544174e-05 0)
(1.5577936e-09 -1.7222304e-06 0)
(4.1070694e-09 8.1009218e-06 0)
(-5.5772705e-10 6.1640567e-06 0)
(-9.7153105e-10 6.165279e-06 0)
(-8.1699365e-10 8.103129e-06 0)
(-5.4429922e-09 -1.7210482e-06 0)
(6.2199336e-10 -1.2544931e-05 0)
(-5.1714692e-10 -1.2545481e-05 0)
(5.5856823e-09 -1.7223865e-06 0)
(7.9866113e-10 8.1017766e-06 0)
(1.0069092e-09 6.1646995e-06 0)
(5.3955968e-10 6.1658852e-06 0)
(-3.8416917e-09 8.1039494e-06 0)
(-1.2947213e-09 -1.721235e-06 0)
(-3.7844084e-09 -1.2546198e-05 0)
(3.9377388e-09 -1.2546741e-05 0)
(1.33876e-09 -1.722549e-06 0)
(3.9419155e-09 8.1026185e-06 0)
(-5.694151e-10 6.1653164e-06 0)
(-9.5396199e-10 6.1664766e-06 0)
(-6.6387032e-10 8.1047249e-06 0)
(-5.2026731e-09 -1.7214001e-06 0)
(7.2972108e-10 -1.254743e-05 0)
(-6.1108689e-10 -1.2547962e-05 0)
(5.3546352e-09 -1.7226923e-06 0)
(6.4992216e-10 8.1034193e-06 0)
(9.89288e-10 6.1659182e-06 0)
(5.5107226e-10 6.167042e-06 0)
(-3.6807718e-09 8.1054894e-06 0)
(-1.076102e-09 -1.721576e-06 0)
(-3.6626917e-09 -1.2548615e-05 0)
(3.8276643e-09 -1.2549137e-05 0)
(1.1287621e-09 -1.7228425e-06 0)
(3.7840296e-09 8.1042081e-06 0)
(-5.805888e-10 6.166495e-06 0)
(-9.3729407e-10 6.1675931e-06 0)
(-5.1847764e-10 8.1062118e-06 0)
(-4.974913e-09 -1.7217319e-06 0)
(8.3090224e-10 -1.2549766e-05 0)
(-7.0213767e-10 -1.2550277e-05 0)
(5.1335336e-09 -1.722974e-06 0)
(5.0777393e-10 8.1049571e-06 0)
(9.7250504e-10 6.1670575e-06 0)
(5.6200932e-10 6.1681197e-06 0)
(-3.5281671e-09 8.1069233e-06 0)
(-8.6903822e-10 -1.7218973e-06 0)
(-3.5483752e-09 -1.2550871e-05 0)
(3.7215137e-09 -1.2551373e-05 0)
(9.2782701e-10 -1.7231127e-06 0)
(3.6333903e-09 8.105695e-06 0)
(-5.9125016e-10 6.167596e-06 0)
(-9.2150717e-10 6.1686327e-06 0)
(-3.8064761e-10 8.1075954e-06 0)
(-4.7594137e-09 -1.7220441e-06 0)
(9.2578338e-10 -1.2551945e-05 0)
(-7.9018467e-10 -1.2552435e-05 0)
(4.9223463e-09 -1.7232332e-06 0)
(3.7216976e-10 8.1063946e-06 0)
(9.5655123e-10 6.168121e-06 0)
(5.7238757e-10 6.1691225e-06 0)
(-3.3836624e-09 8.1082568e-06 0)
(-6.7319785e-10 -1.7221993e-06 0)
(-3.4411642e-09 -1.2552975e-05 0)
(3.6193665e-09 -1.2553454e-05 0)
(7.3589443e-10 -1.7233612e-06 0)
(3.489909e-09 8.1070839e-06 0)
(-6.0140708e-10 6.1686231e-06 0)
(-9.0657505e-10 6.1695994e-06 0)
(-2.5014919e-10 8.1088813e-06 0)
(-4.5557777e-09 -1.7223374e-06 0)
(1.0146626e-09 -1.2553975e-05 0)
(-8.7514598e-10 -1.2554443e-05 0)
(4.7209544e-09 -1.7234715e-06 0)
(2.4300263e-10 8.1077363e-06 0)
(9.4141039e-10 6.1691123e-06 0)
(5.8222814e-10 6.1700545e-06 0)
(-3.2469836e-09 8.1094954e-06 0)
(-4.8816375e-10 -1.7224827e-06 0)
(-3.3407171e-09 -1.2554934e-05 0)
(3.5212643e-09 -1.255539e-05 0)
(5.5282404e-10 -1.7235896e-06 0)
(3.3534375e-09 8.1083792e-06 0)
(-6.1107253e-10 6.1695797e-06 0)
(-8.9246668e-10 6.1704972e-06 0)
(-1.2670059e-10 8.110075e-06 0)
(-4.3635302e-09 -1.7226122e-06 0)
(1.0978741e-09 -1.2555864e-05 0)
(-9.5697488e-10 -1.2556309e-05 0)
(4.5291599e-09 -1.7236905e-06 0)
(1.201128e-10 8.1089867e-06 0)
(9.2706048e-10 6.170035e-06 0)
(5.9155562e-10 6.1709194e-06 0)
(-3.1178101e-09 8.1106444e-06 0)
(-3.1345298e-10 -1.7227479e-06 0)
(-3.2466605e-09 -1.2556756e-05 0)
(3.4272106e-09 -1.2557189e-05 0)
(3.7840407e-10 -1.7237993e-06 0)
(3.2237766e-09 8.1095853e-06 0)
(-6.2026372e-10 6.1704694e-06 0)
(-8.7914719e-10 6.1713298e-06 0)
(-9.9805425e-12 8.1111817e-06 0)
(-4.1821372e-09 -1.7228692e-06 0)
(1.1757752e-09 -1.2557618e-05 0)
(-1.03566e-09 -1.2558041e-05 0)
(4.3466958e-09 -1.7238915e-06 0)
(3.2952233e-12 8.11015e-06 0)
(9.1347462e-10 6.1708924e-06 0)
(6.003974e-10 6.171721e-06 0)
(-2.9957853e-09 8.1117089e-06 0)
(-1.4853392e-10 -1.7229956e-06 0)
(-3.1586012e-09 -1.2558446e-05 0)
(3.3371719e-09 -1.2558856e-05 0)
(2.1236049e-10 -1.7239917e-06 0)
(3.1006838e-09 8.1107064e-06 0)
(-6.290014e-10 6.1712955e-06 0)
(-8.6657881e-10 6.1721008e-06 0)
(1.0036204e-10 8.1122062e-06 0)
(-4.0110224e-09 -1.7231089e-06 0)
(1.248736e-09 -1.2559246e-05 0)
(-1.1112239e-09 -1.2559646e-05 0)
(4.1732359e-09 -1.7240759e-06 0)
(-1.0769284e-10 8.1112305e-06 0)
(9.00622e-10 6.1716878e-06 0)
(6.0878281e-10 6.1724627e-06 0)
(-2.8805268e-09 8.1126936e-06 0)
(7.1596223e-12 -1.7232265e-06 0)
(-3.0761366e-09 -1.2560013e-05 0)
(3.2510803e-09 -1.25604e-05 0)
(5.4366715e-11 -1.7241681e-06 0)
(2.9838816e-09 8.1117468e-06 0)
(-6.3730921e-10 6.1720612e-06 0)
(-8.5472174e-10 6.1728136e-06 0)
(2.0469943e-10 8.1131531e-06 0)
(-3.8495803e-09 -1.723332e-06 0)
(1.3171313e-09 -1.2560753e-05 0)
(-1.1837213e-09 -1.2561131e-05 0)
(4.0084046e-09 -1.7242449e-06 0)
(-2.1312484e-10 8.1122323e-06 0)
(8.8846881e-10 6.1724244e-06 0)
(6.1674276e-10 6.1731478e-06 0)
(-2.7716341e-09 8.1136029e-06 0)
(1.5421585e-10 -1.723441e-06 0)
(-2.9988621e-09 -1.2561462e-05 0)
(3.1688366e-09 -1.2561828e-05 0)
(-9.5947559e-11 -1.7243296e-06 0)
(2.8730642e-09 8.1127104e-06 0)
(-6.4521301e-10 6.1727696e-06 0)
(-8.4353503e-10 6.1734715e-06 0)
(3.0341764e-10 8.1140269e-06 0)
(-3.6971888e-09 -1.7235391e-06 0)
(1.3813337e-09 -1.2562145e-05 0)
(-1.2532352e-09 -1.2562502e-05 0)
(3.8517869e-09 -1.7243995e-06 0)
(-3.1329816e-10 8.1131591e-06 0)
(8.7697904e-10 6.1731052e-06 0)
(6.2430898e-10 6.1737794e-06 0)
(-2.6686967e-09 8.1144412e-06 0)
(2.9323458e-10 -1.7236398e-06 0)
(-2.9263777e-09 -1.25628e-05 0)
(3.0903146e-09 -1.2563144e-05 0)
(-2.389873e-10 -1.7244772e-06 0)
(2.7679047e-09 8.1136009e-06 0)
(-6.5274027e-10 6.1734236e-06 0)
(-8.3297687e-10 6.1740772e-06 0)
(3.9691018e-10 8.1148315e-06 0)
(-3.5532186e-09 -1.7237308e-06 0)
(1.4417092e-09 -1.2563429e-05 0)
(-1.3198742e-09 -1.2563766e-05 0)
(3.7029369e-09 -1.7245407e-06 0)
(-4.0852821e-10 8.1140147e-06 0)
(8.6611515e-10 6.173733e-06 0)
(6.3151381e-10 6.1743603e-06 0)
(-2.5712991e-09 8.1152123e-06 0)
(4.2481894e-10 -1.7238236e-06 0)
(-2.8582925e-09 -1.2564032e-05 0)
(3.0153644e-09 -1.2564356e-05 0)
(-3.7518415e-10 -1.7246118e-06 0)
(2.6680608e-09 8.114422e-06 0)
(-6.5991966e-10 6.174026e-06 0)
(-8.2300549e-10 6.1746337e-06 0)
(4.8557282e-10 8.1155708e-06 0)
(-3.4170414e-09 -1.7239076e-06 0)
(1.498613e-09 -1.256461e-05 0)
(-1.3837686e-09 -1.2564927e-05 0)
(3.5613861e-09 -1.7246694e-06 0)
(-4.9914299e-10 8.1148025e-06 0)
(8.5583864e-10 6.1743103e-06 0)
(6.3838963e-10 6.1748933e-06 0)
(-2.4790266e-09 8.1159197e-06 0)
(5.4956785e-10 -1.7239928e-06 0)
(-2.7942285e-09 -1.2565164e-05 0)
(2.9438171e-09 -1.2565468e-05 0)
(-5.0498875e-10 -1.7247345e-06 0)
(2.5731806e-09 8.1151768e-06 0)
(-6.6678061e-10 6.1745792e-06 0)
(-8.135793e-10 6.1751435e-06 0)
(5.6979897e-10 8.116248e-06 0)
(-3.2880367e-09 -1.7240702e-06 0)
(1.5523869e-09 -1.2565693e-05 0)
(-1.4450667e-09 -1.2565991e-05 0)
(3.4266513e-09 -1.7247864e-06 0)
(-5.8547802e-10 8.1155257e-06 0)
(8.461107e-10 6.1748398e-06 0)
(6.4496861e-10 6.1753807e-06 0)
(-2.3914692e-09 8.1165669e-06 0)
(6.6807073e-10 -1.7241481e-06 0)
(-2.7338227e-09 -1.2566199e-05 0)
(2.8754884e-09 -1.2566485e-05 0)
(-6.288639e-10 -1.7248458e-06 0)
(2.482907e-09 8.1158687e-06 0)
(-6.7335289e-10 6.1750857e-06 0)
(-8.0465752e-10 6.1756088e-06 0)