/*--------------------------------*- C++ -*----------------------------------*\
| =========                 |                                                 |
| \\      /  F ield         | OpenFOAM: The Open Source CFD Toolbox           |
|  \\    /   O peration     | Version:  5.x                                   |
|   \\  /    A nd           | Web:      www.OpenFOAM.org                      |
|    \\/     M anipulation  |                                                 |
\*---------------------------------------------------------------------------*/
FoamFile
{
    version     2.0;
    format      ascii;
    class       volVectorField;
    location    "2";
    object      U_0;
}
// * * * * * * * * * * * * * * * * * * * * * * * * * * * * * * * * * * * * * //

dimensions      [0 1 -1 0 0 0 0];

internalField   nonuniform List<vector> 
1920
(
(-0.00037665653 -0.0034628727 0)
(-0.00068708407 -0.003925156 0)
(-0.00037367492 -0.0038939673 0)
(-0.00011732852 -0.0038905004 0)
(0.00011732883 -0.0038905004 0)
(0.00037367504 -0.0038939673 0)
(0.00068708395 -0.0039251559 0)
(0.00037665644 -0.0034628725 0)
(-0.00052011596 -0.0032076363 0)
(-0.0011328426 -0.0040335627 0)
(-0.00072317952 -0.0040869431 0)
(-0.00024537054 -0.0040893709 0)
(0.00024537111 -0.0040893709 0)
(0.00072317978 -0.0040869431 0)
(0.0011328426 -0.0040335625 0)
(0.00052011592 -0.0032076359 0)
(-0.00043560322 -0.0027956799 0)
(-0.0011200564 -0.004030948 0)
(-0.00080803281 -0.0042920101 0)
(-0.00029029364 -0.0043526263 0)
(0.00029029436 -0.0043526263 0)
(0.00080803318 -0.00429201 0)
(0.0011200565 -0.0040309479 0)
(0.00043560325 -0.0027956796 0)
(-0.00032288687 -0.0023988848 0)
(-0.00094901251 -0.0039611747 0)
(-0.00075241445 -0.0044737379 0)
(-0.00028271388 -0.0046283776 0)
(0.00028271467 -0.0046283776 0)
(0.0007524149 -0.004473738 0)
(0.00094901266 -0.0039611746 0)
(0.00032288694 -0.0023988847 0)
(-0.00022970244 -0.0020937051 0)
(-0.00074543211 -0.0038717622 0)
(-0.00063719254 -0.0046139794 0)
(-0.00024797998 -0.0048749148 0)
(0.00024798072 -0.0048749148 0)
(0.00063719301 -0.0046139794 0)
(0.00074543235 -0.0038717622 0)
(0.00022970254 -0.002093705 0)
(-0.00015895704 -0.0018740435 0)
(-0.00055828205 -0.0037862788 0)
(-0.00050768477 -0.0047150985 0)
(-0.00020349652 -0.0050774087 0)
(0.00020349717 -0.0050774088 0)
(0.00050768524 -0.0047150986 0)
(0.00055828235 -0.0037862787 0)
(0.00015895715 -0.0018740435 0)
(-0.00010736001 -0.0017186123 0)
(-0.00040397959 -0.0037131432 0)
(-0.0003873491 -0.0047853892 0)
(-0.00015905947 -0.0052354427 0)
(0.00015905997 -0.0052354427 0)
(0.00038734954 -0.0047853892 0)
(0.00040397994 -0.0037131431 0)
(0.00010736015 -0.0017186122 0)
(-7.099959e-05 -0.001610388 0)
(-0.0002847717 -0.0036545034 0)
(-0.00028574639 -0.0048329887 0)
(-0.00011993368 -0.0053543143 0)
(0.00011993404 -0.0053543143 0)
(0.00028574678 -0.0048329886 0)
(0.00028477208 -0.0036545032 0)
(7.0999729e-05 -0.0016103879 0)
(-4.6166873e-05 -0.001536508 0)
(-0.00019639031 -0.0036096589 0)
(-0.00020525459 -0.0048645129 0)
(-8.7709371e-05 -0.0054410968 0)
(8.7709584e-05 -0.0054410967 0)
(0.00020525492 -0.0048645128 0)
(0.00019639069 -0.0036096586 0)
(4.6167026e-05 -0.0015365079 0)
(-2.9523153e-05 -0.0014870082 0)
(-0.0001329529 -0.0035766021 0)
(-0.00014403666 -0.0048849731 0)
(-6.2640016e-05 -0.00550288 0)
(6.26401e-05 -0.00550288 0)
(0.00014403691 -0.0048849728 0)
(0.00013295326 -0.0035766018 0)
(2.9523301e-05 -0.0014870081 0)
(-1.8595507e-05 -0.0014543943 0)
(-8.8420069e-05 -0.0035529323 0)
(-9.9099861e-05 -0.0048980077 0)
(-4.3714105e-05 -0.0055459156 0)
(4.3714077e-05 -0.0055459154 0)
(9.9100039e-05 -0.0048980075 0)
(8.8420399e-05 -0.0035529319 0)
(1.8595656e-05 -0.0014543942 0)
(-1.1500811e-05 -0.0014332417 0)
(-5.7854962e-05 -0.0035363934 0)
(-6.6878005e-05 -0.0049061554 0)
(-2.9956343e-05 -0.0055753111 0)
(2.9956222e-05 -0.005575311 0)
(6.6878114e-05 -0.004906155 0)
(5.785525e-05 -0.003536393 0)
(1.1500948e-05 -0.0014332416 0)
(-6.9879158e-06 -0.0014197447 0)
(-3.71989e-05 -0.003525083 0)
(-4.4358999e-05 -0.0049111491 0)
(-2.0115766e-05 -0.0055950231 0)
(2.0115577e-05 -0.0055950229 0)
(4.4359036e-05 -0.0049111488 0)
(3.719914e-05 -0.0035250826 0)
(6.988039e-06 -0.0014197446 0)
(-4.1455839e-06 -0.0014112798 0)
(-2.3510455e-05 -0.0035175035 0)
(-2.8877463e-05 -0.00491414 0)
(-1.3288563e-05 -0.0056080066 0)
(1.3288316e-05 -0.0056080065 0)
(2.887745e-05 -0.0049141396 0)
(2.3510638e-05 -0.0035175032 0)
(4.1456963e-06 -0.0014112797 0)
(-2.3972652e-06 -0.0014060739 0)
(-1.4560202e-05 -0.0035125224 0)
(-1.8464866e-05 -0.0049158843 0)
(-8.601165e-06 -0.0056164027 0)
(8.6008834e-06 -0.0056164025 0)
(1.8464789e-05 -0.004915884 0)
(1.4560341e-05 -0.0035125221 0)
(2.3973544e-06 -0.0014060738 0)
(-1.3348815e-06 -0.0014029429 0)
(-8.8222636e-06 -0.0035093148 0)
(-1.15603e-05 -0.0049168658 0)
(-5.4694262e-06 -0.0056217286 0)
(5.4691124e-06 -0.0056217285 0)
(1.1560193e-05 -0.0049168654 0)
(8.8223455e-06 -0.0035093146 0)
(1.3349645e-06 -0.0014029428 0)
(-7.0833006e-07 -0.0014011118 0)
(-5.1976534e-06 -0.0035072922 0)
(-7.0776139e-06 -0.004917393 0)
(-3.3973043e-06 -0.0056250347 0)
(3.3969788e-06 -0.0056250346 0)
(7.0774587e-06 -0.0049173928 0)
(5.1977049e-06 -0.003507292 0)
(7.0838812e-07 -0.0014011117 0)
(-3.4663031e-07 -0.0014000779 0)
(-2.9588086e-06 -0.0035060481 0)
(-4.2124908e-06 -0.0049176552 0)
(-2.0612953e-06 -0.0056270371 0)
(2.0609568e-06 -0.0056270371 0)
(4.2123244e-06 -0.004917655 0)
(2.9588155e-06 -0.003506048 0)
(3.4668677e-07 -0.0014000779 0)
(-1.4672066e-07 -0.001399523 0)
(-1.6040058e-06 -0.0035053033 0)
(-2.4228437e-06 -0.00491777 0)
(-1.2113468e-06 -0.0056282132 0)
(1.2110127e-06 -0.0056282132 0)
(2.4226501e-06 -0.0049177699 0)
(1.6039965e-06 -0.0035053033 0)
(1.4675681e-07 -0.001399523 0)
(-4.1468693e-08 -0.001399247 0)
(-8.0832869e-07 -0.0035048739 0)
(-1.3285682e-06 -0.0049178052 0)
(-6.8502445e-07 -0.0056288777 0)
(6.8469735e-07 -0.0056288777 0)
(1.3283795e-06 -0.0049178052 0)
(8.0829544e-07 -0.003504874 0)
(4.1505525e-08 -0.0013992471 0)
(9.2050407e-09 -0.0013991282 0)
(-3.5695489e-07 -0.0035046372 0)
(-6.791749e-07 -0.0049178022 0)
(-3.6595873e-07 -0.0056292324 0)
(3.656513e-07 -0.0056292325 0)
(6.7898473e-07 -0.0049178023 0)
(3.5691707e-07 -0.0035046373 0)
(-9.1801406e-09 -0.0013991282 0)
(2.9933329e-08 -0.0013990927 0)
(-1.1393289e-07 -0.0035045163 0)
(-3.0671378e-07 -0.0049177821 0)
(-1.7941424e-07 -0.0056294062 0)
(1.7913348e-07 -0.0056294063 0)
(3.0654249e-07 -0.0049177824 0)
(1.1389361e-07 -0.0035045165 0)
(-2.9908055e-08 -0.0013990928 0)
(3.492849e-08 -0.0013990985 0)
(7.4351171e-09 -0.0035044612 0)
(-1.0404881e-07 -0.0049177578 0)
(-7.3862852e-08 -0.0056294778 0)
(7.3618151e-08 -0.005629478 0)
(1.0390024e-07 -0.0049177581 0)
(-7.4711672e-09 -0.0035044616 0)
(-3.4906305e-08 -0.0013990987 0)
(3.2688685e-08 -0.0013991214 0)
(5.939049e-08 -0.0035044428 0)
(-8.9919529e-10 -0.0049177343 0)
(-1.8620998e-08 -0.0056294955 0)
(1.8425921e-08 -0.0056294956 0)
(7.8060404e-10 -0.0049177347 0)
(-5.9408306e-08 -0.0035044432 0)
(-3.2667999e-08 -0.0013991216 0)
(2.7277579e-08 -0.001399149 0)
(7.5092439e-08 -0.0035044424 0)
(4.398109e-08 -0.0049177144 0)
(8.9894196e-09 -0.0056294869 0)
(-9.1346905e-09 -0.0056294871 0)
(-4.405577e-08 -0.0049177148 0)
(-7.510241e-08 -0.0035044429 0)
(-2.7252889e-08 -0.0013991492 0)
(2.1627844e-08 -0.0013991749 0)
(7.1769396e-08 -0.0035044504 0)
(5.9011383e-08 -0.0049176984 0)
(1.8965705e-08 -0.005629468 0)
(-1.9047256e-08 -0.0056294682 0)
(-5.9048834e-08 -0.0049176989 0)
(-7.1748028e-08 -0.003504451 0)
(-2.160687e-08 -0.0013991751 0)
(1.6070109e-08 -0.0013991968 0)
(6.1754343e-08 -0.0035044608 0)
(5.7075126e-08 -0.0049176863 0)
(2.2101629e-08 -0.0056294468 0)
(-2.212496e-08 -0.005629447 0)
(-5.7057425e-08 -0.0049176869 0)
(-6.1723823e-08 -0.0035044614 0)
(-1.6040955e-08 -0.0013991971 0)
(1.1881037e-08 -0.0013992141 0)
(4.8629269e-08 -0.0035044711 0)
(4.9925039e-08 -0.0049176773 0)
(1.9349867e-08 -0.0056294274 0)
(-1.9304019e-08 -0.0056294276 0)
(-4.9868359e-08 -0.0049176779 0)
(-4.8562123e-08 -0.0035044717 0)
(-1.1857307e-08 -0.0013992144 0)
(8.164636e-09 -0.0013992271 0)
(3.7335506e-08 -0.0035044798 0)
(3.9153293e-08 -0.004917671 0)
(1.6969042e-08 -0.0056294112 0)
(-1.6865356e-08 -0.0056294114 0)
(-3.9040468e-08 -0.0049176715 0)
(-3.7260534e-08 -0.0035044805 0)
(-8.1313892e-09 -0.0013992274 0)
(5.8373668e-09 -0.0013992365 0)
(2.6667067e-08 -0.0035044868 0)
(3.0445298e-08 -0.0049176664 0)
(1.2308972e-08 -0.0056293986 0)
(-1.2140623e-08 -0.0056293988 0)
(-3.0297621e-08 -0.0049176671 0)
(-2.6557145e-08 -0.0035044874 0)
(-5.810345e-09 -0.0013992369 0)
(3.6924591e-09 -0.0013992431 0)
(1.9289657e-08 -0.0035044919 0)
(2.1379804e-08 -0.0049176633 0)
(1.0039487e-08 -0.0056293891 0)
(-9.8221039e-09 -0.0056293894 0)
(-2.1183747e-08 -0.0049176639 0)
(-1.9175074e-08 -0.0035044926 0)
(-3.6567012e-09 -0.0013992434 0)
(2.6415475e-09 -0.0013992476 0)
(1.2618313e-08 -0.0035044956 0)
(1.5700357e-08 -0.0049176612 0)
(6.2725713e-09 -0.0056293823 0)
(-6.0037112e-09 -0.0056293826 0)
(-1.5478198e-08 -0.0049176618 0)
(-1.2475362e-08 -0.0035044962 0)
(-2.6119507e-09 -0.0013992479 0)
(1.463836e-09 -0.0013992505 0)
(8.7971696e-09 -0.0035044981 0)
(9.8308212e-09 -0.0049176598 0)
(5.1703491e-09 -0.0056293776 0)
(-4.8674675e-09 -0.0056293779 0)
(-9.5738937e-09 -0.0049176604 0)
(-8.6537563e-09 -0.0035044987 0)
(-1.4274982e-09 -0.0013992508 0)
(1.1228704e-09 -0.0013992523 0)
(5.0336102e-09 -0.0035044997 0)
(7.0202342e-09 -0.0049176589 0)
(2.5438499e-09 -0.0056293745 0)
(-2.2077501e-09 -0.0056293747 0)
(-6.7486016e-09 -0.0049176594 0)
(-4.8708875e-09 -0.0035045003 0)
(-1.0919942e-09 -0.0013992526 0)
(4.5676229e-10 -0.0013992533 0)
(3.4500823e-09 -0.0035045006 0)
(3.5339432e-09 -0.0049176582 0)
(2.3995251e-09 -0.0056293725 0)
(-2.0469596e-09 -0.0056293727 0)
(-3.2435419e-09 -0.0049176587 0)
(-3.2912163e-09 -0.0035045011 0)
(-4.215582e-10 -0.0013992536 0)
(4.6335405e-10 -0.0013992539 0)
(1.3697721e-09 -0.003504501 0)
(2.5545085e-09 -0.0049176578 0)
(5.7040916e-10 -0.0056293713 0)
(-2.0383361e-10 -0.0056293715 0)
(-2.2609755e-09 -0.0049176583 0)
(-1.2009191e-09 -0.0035045015 0)
(-4.3254647e-10 -0.0013992541 0)
(4.2448304e-11 -0.0013992541 0)
(9.7874061e-10 -0.0035045012 0)
(4.6731071e-10 -0.0049176575 0)
(1.0000081e-09 -0.0056293706 0)
(-6.3368096e-10 -0.0056293708 0)
(-1.7017107e-10 -0.0049176579 0)
(-8.1736948e-10 -0.0035045016 0)
(-9.5884668e-12 -0.0013992543 0)
(2.0165598e-10 -0.001399254 0)
(-2.4182625e-10 -0.003504501 0)
(4.7054031e-10 -0.0049176573 0)
(-3.7146866e-10 -0.0056293703 0)
(7.3493447e-10 -0.0056293705 0)
(-1.8003158e-10 -0.0049176577 0)
(4.0516124e-10 -0.0035045014 0)
(-1.7198479e-10 -0.0013992542 0)
(-1.0993052e-10 -0.0013992539 0)
(-6.6368823e-11 -0.0035045008 0)
(-8.9267204e-10 -0.0049176571 0)
(3.4872674e-10 -0.0056293703 0)
(1.1692901e-12 -0.0056293704 0)
(1.1746138e-09 -0.0049176575 0)
(2.1983415e-10 -0.0035045011 0)
(1.3980627e-10 -0.001399254 0)
(1.0813902e-10 -0.0013992536 0)
(-8.8423131e-10 -0.0035045004 0)
(-4.2199339e-10 -0.004917657 0)
(-7.8512936e-10 -0.0056293704 0)
(1.1197539e-09 -0.0056293705 0)
(6.9057565e-10 -0.0049176573 0)
(1.033756e-09 -0.0035045007 0)
(-8.0247979e-11 -0.0013992538 0)
(-1.567584e-10 -0.0013992533 0)
(-4.6730345e-10 -0.0035045 0)
(-1.4398738e-09 -0.0049176569 0)
(6.1658959e-11 -0.0056293707 0)
(2.5075788e-10 -0.0056293707 0)
(1.6917066e-09 -0.0049176571 0)
(6.0602449e-10 -0.0035045002 0)
(1.8351665e-10 -0.0013992535 0)
(7.9033533e-11 -0.001399253 0)
(-1.1077209e-09 -0.0035044995 0)
(-7.716512e-10 -0.0049176568 0)
(-9.5349796e-10 -0.0056293709 0)
(1.2433341e-09 -0.005629371 0)
(1.0067939e-09 -0.004917657 0)
(1.2388706e-09 -0.0035044997 0)
(-5.3141603e-11 -0.0013992531 0)
(-1.6544546e-10 -0.0013992527 0)
(-6.0178992e-10 -0.003504499 0)
(-1.6321094e-09 -0.0049176566 0)
(-6.3017186e-11 -0.0056293712 0)
(3.2674914e-10 -0.0056293713 0)
(1.8462749e-09 -0.0049176568 0)
(7.2255762e-10 -0.0035044992 0)
(1.8932447e-10 -0.0013992528 0)
(7.1567849e-11 -0.0013992524 0)
(-1.1656472e-09 -0.0035044985 0)
(-8.9384656e-10 -0.0049176565 0)
(-1.0163643e-09 -0.0056293716 0)
(1.2548654e-09 -0.0056293716 0)
(1.0910423e-09 -0.0049176567 0)
(1.2771794e-09 -0.0035044987 0)
(-4.7559249e-11 -0.0013992524 0)
(-1.6238775e-10 -0.001399252 0)
(-6.3613327e-10 -0.003504498 0)
(-1.6814265e-09 -0.0049176564 0)
(-1.2003118e-10 -0.0056293719 0)
(3.3249078e-10 -0.005629372 0)
(1.8566603e-09 -0.0049176566 0)
(7.3875263e-10 -0.0035044981 0)
(1.8384461e-10 -0.0013992521 0)
(6.9886609e-11 -0.0013992517 0)
(-1.1645314e-09 -0.0035044975 0)
(-9.281857e-10 -0.0049176563 0)
(-1.0360085e-09 -0.0056293722 0)
(1.2241476e-09 -0.0056293723 0)
(1.0884546e-09 -0.0049176564 0)
(1.2576786e-09 -0.0035044976 0)
(-4.7436466e-11 -0.0013992517 0)
(-1.5674171e-10 -0.0013992514 0)
(-6.3698852e-10 -0.003504497 0)
(-1.6774483e-09 -0.0049176562 0)
(-1.4957705e-10 -0.0056293726 0)
(3.1449495e-10 -0.0056293726 0)
(1.8169967e-09 -0.0049176563 0)
(7.2334231e-10 -0.0035044971 0)
(1.7631518e-10 -0.0013992514 0)
(6.8945113e-11 -0.001399251 0)
(-1.1448939e-09 -0.0035044965 0)
(-9.3091384e-10 -0.0049176561 0)
(-1.0375769e-09 -0.0056293729 0)
(1.1813246e-09 -0.005629373 0)
(1.058885e-09 -0.0049176562 0)
(1.2223853e-09 -0.0035044966 0)
(-4.7641627e-11 -0.0013992511 0)
(-1.5112064e-10 -0.0013992507 0)
(-6.2818471e-10 -0.003504496 0)
(-1.6545312e-09 -0.0049176559 0)
(-1.6704159e-10 -0.0056293733 0)
(2.9190144e-10 -0.0056293733 0)
(1.7642302e-09 -0.004917656 0)
(7.0127006e-10 -0.0035044961 0)
(1.6932799e-10 -0.0013992507 0)
(6.7566663e-11 -0.0013992504 0)
(-1.1202469e-09 -0.0035044955 0)
(-9.2235368e-10 -0.0049176558 0)
(-1.0302869e-09 -0.0056293736 0)
(1.1381555e-09 -0.0056293736 0)
(1.0244285e-09 -0.0049176559 0)
(1.1854272e-09 -0.0035044956 0)
(-4.7006347e-11 -0.0013992504 0)
(-1.4597878e-10 -0.00139925 0)
(-6.1690612e-10 -0.003504495 0)
(-1.6243953e-09 -0.0049176557 0)
(-1.7775545e-10 -0.0056293739 0)
(2.7154266e-10 -0.005629374 0)
(1.7110211e-09 -0.0049176558 0)
(6.8003626e-10 -0.0035044951 0)
(1.6325177e-10 -0.0013992501 0)
(6.5728224e-11 -0.0013992497 0)
(-1.0942303e-09 -0.0035044945 0)
(-9.0888807e-10 -0.0049176556 0)
(-1.0173337e-09 -0.0056293742 0)
(1.0984147e-09 -0.0056293743 0)
(9.9179426e-10 -0.0049176557 0)
(1.150403e-09 -0.0035044946 0)
(-4.5575553e-11 -0.0013992498 0)
(-1.4122074e-10 -0.0013992494 0)
(-6.0468685e-10 -0.003504494 0)
(-1.5905185e-09 -0.0049176554 0)
(-1.8353054e-10 -0.0056293746 0)
(2.550845e-10 -0.0056293746 0)
(1.6606041e-09 -0.0049176555 0)
(6.6094274e-10 -0.0035044941 0)
(1.5787729e-10 -0.0013992495 0)
(6.3626922e-11 -0.0013992491 0)
(-1.0674431e-09 -0.0035044935 0)
(-8.9220338e-10 -0.0049176553 0)
(-1.0000055e-09 -0.0056293749 0)
(1.0626608e-09 -0.0056293749 0)
(9.6204795e-10 -0.0049176554 0)
(1.1174692e-09 -0.0035044936 0)
(-4.3640819e-11 -0.0013992491 0)
(-1.367028e-10 -0.0013992488 0)
(-5.9155542e-10 -0.0035044931 0)
(-1.5538615e-09 -0.0049176552 0)
(-1.8520452e-10 -0.0056293752 0)
(2.4222722e-10 -0.0056293752 0)
(1.6130062e-09 -0.0049176553 0)
(6.4348607e-10 -0.0035044932 0)
(1.5294579e-10 -0.0013992488 0)
(6.1423851e-11 -0.0013992485 0)
(-1.0398415e-09 -0.0035044926 0)
(-8.7274819e-10 -0.0049176551 0)
(-9.7914631e-10 -0.0056293755 0)
(1.0303183e-09 -0.0056293755 0)
(9.345346e-10 -0.0049176552 0)
(1.0859612e-09 -0.0035044927 0)
(-4.1459233e-11 -0.0013992485 0)
(-1.3234119e-10 -0.0013992482 0)
(-5.773656e-10 -0.0035044922 0)
(-1.514849e-09 -0.004917655 0)
(-1.8345146e-10 -0.0056293758 0)
(2.3207405e-10 -0.0056293758 0)
(1.5674375e-09 -0.0049176551 0)
(6.2688798e-10 -0.0035044923 0)
(1.4827384e-10 -0.0013992482 0)
(5.921075e-11 -0.0013992479 0)
(-1.011414e-09 -0.0035044917 0)
(-8.5081525e-10 -0.0049176549 0)
(-9.5554468e-10 -0.0056293761 0)
(1.0005448e-09 -0.0056293761 0)
(9.0831373e-10 -0.004917655 0)
(1.0552313e-09 -0.0035044918 0)
(-3.9204884e-11 -0.001399248 0)
(-1.2810627e-10 -0.0013992476 0)
(-5.6209997e-10 -0.0035044913 0)
(-1.4739012e-09 -0.0049176548 0)
(-1.7894049e-10 -0.0056293764 0)
(2.2368422e-10 -0.0056293764 0)
(1.5231078e-09 -0.0049176549 0)
(6.1053066e-10 -0.0035044914 0)
(1.437553e-10 -0.0013992477 0)
(5.7031436e-11 -0.0013992473 0)
(-9.8227874e-10 -0.0035044908 0)
(-8.2676589e-10 -0.0049176547 0)
(-9.2996133e-10 -0.0056293766 0)
(9.7256644e-10 -0.0056293767 0)
(8.8260651e-10 -0.0049176548 0)
(1.0248399e-09 -0.003504491 0)
(-3.6983541e-11 -0.0013992474 0)
(-1.2399721e-10 -0.0013992471 0)
(-5.4586313e-10 -0.0035044904 0)
(-1.4314925e-09 -0.0049176545 0)
(-1.7230608e-10 -0.0056293769 0)
(2.1627216e-10 -0.005629377 0)
(1.4794445e-09 -0.0049176547 0)
(5.940194e-10 -0.0035044905 0)
(1.3933739e-10 -0.0013992471 0)
(5.4905687e-11 -0.0013992468 0)
(-9.5263259e-10 -0.00350449 0)
(-8.0100834e-10 -0.0049176545 0)
(-9.0307955e-10 -0.0056293772 0)
(9.4578477e-10 -0.0056293773 0)
(8.5688326e-10 -0.0049176546 0)
(9.9454697e-10 -0.0035044901 0)
(-3.4855942e-11 -0.0013992468 0)
(-1.2002354e-10 -0.0013992465 0)
(-5.2881948e-10 -0.0035044896 0)
(-1.3881007e-09 -0.0049176543 0)
(-1.6409956e-10 -0.0056293775 0)
(2.0925533e-10 -0.0056293776 0)
(1.4361045e-09 -0.0049176545 0)
(5.7714228e-10 -0.0035044897 0)
(1.3499894e-10 -0.0013992466 0)
(5.2843735e-11 -0.0013992462 0)
(-9.2269534e-10 -0.0035044891 0)
(-7.7394229e-10 -0.0049176542 0)
(-8.754696e-10 -0.0056293778 0)
(9.1978685e-10 -0.0056293778 0)
(8.3083575e-10 -0.0049176544 0)
(9.6425853e-10 -0.0035044893 0)
(-3.2855335e-11 -0.0013992463 0)
(-1.1619522e-10 -0.001399246 0)
(-5.1114613e-10 -0.0035044887 0)
(-1.3441617e-09 -0.0049176541 0)
(-1.5476729e-10 -0.005629378 0)
(2.0223946e-10 -0.0056293781 0)
(1.3929276e-09 -0.0049176543 0)
(5.598153e-10 -0.0035044889 0)
(1.30736e-10 -0.001399246 0)
(5.0853294e-11 -0.0013992457 0)
(-8.9267569e-10 -0.0035044883 0)
(-7.4592572e-10 -0.0049176541 0)
(-8.4758193e-10 -0.0056293783 0)
(8.9431716e-10 -0.0056293784 0)
(8.0432293e-10 -0.0049176542 0)
(9.3397567e-10 -0.0035044885 0)
(-3.099878e-11 -0.0013992458 0)
(-1.1251913e-10 -0.0013992455 0)
(-4.9300952e-10 -0.003504488 0)
(-1.300051e-09 -0.0049176539 0)
(-1.4465378e-10 -0.0056293786 0)
(1.9498178e-10 -0.0056293786 0)
(1.3498827e-09 -0.0049176541 0)
(5.420374e-10 -0.0035044881 0)
(1.2655313e-10 -0.0013992455 0)
(4.8941815e-11 -0.0013992452 0)
(-8.6275834e-10 -0.0035044876 0)
(-7.1726497e-10 -0.0049176539 0)
(-8.197604e-10 -0.0056293788 0)
(8.6923892e-10 -0.0056293789 0)
(7.7731925e-10 -0.0049176541 0)
(9.0375646e-10 -0.0035044878 0)
(-2.9293875e-11 -0.0013992453 0)
(-1.0899844e-10 -0.001399245 0)
(-4.7455806e-10 -0.0035044872 0)
(-1.2560825e-09 -0.0049176538 0)
(-1.3401919e-10 -0.0056293791 0)
(1.8735088e-10 -0.0056293792 0)
(1.307021e-09 -0.004917654 0)
(5.2385788e-10 -0.0035044874 0)
(1.2245846e-10 -0.0013992451 0)
(4.7116686e-11 -0.0013992447 0)
(-8.33102e-10 -0.0035044868 0)
(-6.8821891e-10 -0.0049176537 0)
(-7.9226359e-10 -0.0056293793 0)
(8.4449632e-10 -0.0056293794 0)
(7.4987326e-10 -0.0049176539 0)
(8.7368938e-10 -0.003504487 0)
(-2.7742548e-11 -0.0013992448 0)
(-1.0563325e-10 -0.0013992445 0)
(-4.5592245e-10 -0.0035044865 0)
(-1.2125174e-09 -0.0049176536 0)
(-1.2306059e-10 -0.0056293796 0)
(1.7929125e-10 -0.0056293797 0)
(1.2644417e-09 -0.0049176538 0)
(5.0535424e-10 -0.0035044867 0)
(1.1846114e-10 -0.0013992446 0)
(4.538478e-11 -0.0013992443 0)
(-8.0384209e-10 -0.0035044861 0)
(-6.5900768e-10 -0.0049176535 0)
(-7.6528631e-10 -0.0056293798 0)
(8.2008446e-10 -0.0056293799 0)
(7.2207669e-10 -0.0049176537 0)
(8.4387596e-10 -0.0035044863 0)
(-2.6343189e-11 -0.0013992444 0)
(-1.0242156e-10 -0.001399244 0)
(-4.372183e-10 -0.0035044858 0)
(-1.1695737e-09 -0.0049176534 0)
(-1.1193015e-10 -0.0056293801 0)
(1.7079614e-10 -0.0056293801 0)
(1.2222664e-09 -0.0049176537 0)
(4.8661737e-10 -0.003504486 0)
(1.145699e-10 -0.0013992441 0)
(4.3751772e-11 -0.0013992438 0)
(-7.7509423e-10 -0.0035044854 0)
(-6.2982059e-10 -0.0049176534 0)
(-7.3897653e-10 -0.0056293803 0)
(7.9602698e-10 -0.0056293804 0)
(6.9404336e-10 -0.0049176536 0)
(8.1441932e-10 -0.0035044857 0)
(-2.5092057e-11 -0.0013992439 0)
(-9.9359933e-11 -0.0013992436 0)
(-4.1854861e-10 -0.0035044851 0)
(-1.127434e-09 -0.0049176533 0)
(-1.0074896e-10 -0.0056293805 0)
(1.6188808e-10 -0.0056293806 0)
(1.1806231e-09 -0.0049176535 0)
(4.6774225e-10 -0.0035044853 0)
(1.1079229e-10 -0.0013992437 0)
(4.2221942e-11 -0.0013992434 0)
(-7.469566e-10 -0.0035044848 0)
(-6.0082208e-10 -0.0049176532 0)
(-7.1344772e-10 -0.0056293808 0)
(7.7236109e-10 -0.0056293808 0)
(6.6589513e-10 -0.0049176535 0)
(7.8541752e-10 -0.003504485 0)
(-2.3983875e-11 -0.0013992435 0)
(-9.644395e-11 -0.0013992432 0)
(-4.0000492e-10 -0.0035044845 0)
(-1.0862511e-09 -0.0049176532 0)
(-8.9615691e-11 -0.005629381 0)
(1.5260626e-10 -0.0056293811 0)
(1.1396352e-09 -0.0049176534 0)
(4.4882188e-10 -0.0035044847 0)
(1.0713455e-10 -0.0013992433 0)
(4.0798248e-11 -0.001399243 0)
(-7.1951163e-10 -0.0035044842 0)
(-5.7215488e-10 -0.0049176531 0)
(-6.8878629e-10 -0.0056293812 0)
(7.4912874e-10 -0.0056293813 0)
(6.3775291e-10 -0.0049176533 0)
(7.5695937e-10 -0.0035044844 0)
(-2.3012423e-11 -0.0013992431 0)
(-9.3668658e-11 -0.0013992428 0)
(-3.8166792e-10 -0.0035044839 0)
(-1.0461508e-09 -0.004917653 0)
(-7.8611529e-11 -0.0056293814 0)
(1.4299867e-10 -0.0056293815 0)
(1.0994162e-09 -0.0049176533 0)
(4.2994383e-10 -0.0035044841 0)
(1.0360139e-10 -0.0013992429 0)
(3.9482048e-11 -0.0013992426 0)
(-6.928268e-10 -0.0035044836 0)
(-5.439413e-10 -0.004917653 0)
(-6.6505619e-10 -0.0056293816 0)
(7.263715e-10 -0.0056293817 0)
(6.0973151e-10 -0.0049176532 0)
(7.2912266e-10 -0.0035044838 0)
(-2.2170791e-11 -0.0013992427 0)
(-9.1028626e-11 -0.0013992424 0)
(-3.636075e-10 -0.0035044833 0)
(-1.0072336e-09 -0.0049176529 0)
(-6.7802584e-11 -0.0056293819 0)
(1.3311761e-10 -0.0056293819 0)
(1.0600661e-09 -0.0049176531 0)
(4.1118815e-10 -0.0035044835 0)
(1.001961e-10 -0.0013992425 0)
(3.8273502e-11 -0.0013992422 0)
(-6.6695521e-10 -0.003504483 0)
(-5.1628399e-10 -0.0049176529 0)
(-6.423015e-10 -0.0056293821 0)
(7.041282e-10 -0.0056293821 0)
(5.8193664e-10 -0.0049176531 0)
(7.0197319e-10 -0.0035044832 0)
(-2.1451637e-11 -0.0013992423 0)
(-8.8518187e-11 -0.001399242 0)
(-3.4588256e-10 -0.0035044828 0)
(-9.6957645e-10 -0.0049176528 0)
(-5.7241158e-11 -0.0056293823 0)
(1.2301711e-10 -0.0056293824 0)
(1.0216704e-09 -0.004917653 0)
(3.9262643e-10 -0.003504483 0)
(9.6920692e-11 -0.0013992421 0)
(3.7171602e-11 -0.0013992419 0)
(-6.4193598e-10 -0.0035044825 0)
(-4.8926622e-10 -0.0049176528 0)
(-6.2054844e-10 -0.0056293825 0)
(6.8243383e-10 -0.0056293826 0)
(5.5446356e-10 -0.004917653 0)
(6.7556472e-10 -0.0035044827 0)
(-2.0847332e-11 -0.001399242 0)
(-8.61314e-11 -0.0013992417 0)
(-3.2854101e-10 -0.0035044822 0)
(-9.3323335e-10 -0.0049176527 0)
(-4.6966711e-11 -0.0056293827 0)
(1.127514e-10 -0.0056293828 0)
(9.842997e-10 -0.0049176529 0)
(3.7432131e-10 -0.0035044825 0)
(9.3775858e-11 -0.0013992418 0)
(3.61745e-11 -0.0013992415 0)
(-6.177951e-10 -0.003504482 0)
(-4.6295257e-10 -0.0049176527 0)
(-5.9980692e-10 -0.0056293829 0)
(6.6131908e-10 -0.0056293829 0)
(5.2739631e-10 -0.0049176529 0)
(6.499394e-10 -0.0035044822 0)
(-2.035009e-11 -0.0013992416 0)
(-8.3862208e-11 -0.0013992414 0)
(-3.116202e-10 -0.0035044817 0)
(-8.9823726e-10 -0.0049176526 0)
(-3.7006461e-11 -0.0056293831 0)
(1.0237368e-10 -0.0056293831 0)
(9.4801025e-10 -0.0049176528 0)
(3.5632657e-10 -0.0035044819 0)
(9.0761478e-11 -0.0013992415 0)
(3.5279482e-11 -0.0013992412 0)
(-5.9454645e-10 -0.0035044815 0)
(-4.3738992e-10 -0.0049176526 0)
(-5.8007225e-10 -0.0056293832 0)
(6.4081018e-10 -0.0056293833 0)
(5.0080753e-10 -0.0049176528 0)
(6.2512852e-10 -0.0035044817 0)
(-1.9952067e-11 -0.0013992413 0)
(-8.1704553e-11 -0.001399241 0)
(-2.9514746e-10 -0.0035044813 0)
(-8.6460203e-10 -0.0049176525 0)
(-2.7376717e-11 -0.0056293834 0)
(9.1935442e-11 -0.0056293835 0)
(9.128445e-10 -0.0049176527 0)
(3.3868714e-10 -0.0035044815 0)
(8.7876243e-11 -0.0013992411 0)
(3.4483243e-11 -0.0013992409 0)
(-5.7219298e-10 -0.003504481 0)
(-4.1260898e-10 -0.0049176525 0)
(-5.6132729e-10 -0.0056293836 0)
(6.2092889e-10 -0.0056293837 0)
(4.7475872e-10 -0.0049176527 0)
(6.0115301e-10 -0.0035044812 0)
(-1.9645628e-11 -0.001399241 0)
(-7.9652411e-11 -0.0013992407 0)
(-2.791412e-10 -0.0035044808 0)
(-8.3232461e-10 -0.0049176525 0)
(-1.8084187e-11 -0.0056293838 0)
(8.1485595e-11 -0.0056293839 0)
(8.7883204e-10 -0.0049176526 0)
(3.2143968e-10 -0.003504481 0)
(8.5118201e-11 -0.0013992408 0)
(3.3781928e-11 -0.0013992406 0)
(-5.5072827e-10 -0.0035044806 0)
(-3.8862627e-10 -0.0049176524 0)
(-5.4354449e-10 -0.005629384 0)
(6.0169248e-10 -0.005629384 0)
(4.4930047e-10 -0.0049176526 0)
(5.7802461e-10 -0.0035044808 0)
(-1.9423205e-11 -0.0013992407 0)
(-7.7699855e-11 -0.0013992405 0)
(-2.6361171e-10 -0.0035044804 0)
(-8.0138768e-10 -0.0049176524 0)
(-9.1276621e-12 -0.0056293841 0)
(7.1069844e-11 -0.0056293842 0)
(8.4599058e-10 -0.0049176526 0)
(3.0461295e-10 -0.0035044806 0)
(8.2484604e-11 -0.0013992405 0)
(3.3171401e-11 -0.0013992403 0)
(-5.3013783e-10 -0.0035044802 0)
(-3.6544617e-10 -0.0049176523 0)
(-5.266881e-10 -0.0056293843 0)
(5.8311351e-10 -0.0056293844 0)
(4.2447311e-10 -0.0049176525 0)
(5.5574683e-10 -0.0035044804 0)
(-1.9277658e-11 -0.0013992404 0)
(-7.5841068e-11 -0.0013992402 0)
(-2.4856262e-10 -0.00350448 0)
(-7.7176224e-10 -0.0049176523 0)
(-4.9948521e-13 -0.0056293845 0)
(6.073006e-11 -0.0056293845 0)
(8.1432719e-10 -0.0049176525 0)
(2.882286e-10 -0.0035044802 0)
(7.9972176e-11 -0.0013992403 0)
(3.2647033e-11 -0.00139924 0)
(-5.1040083e-10 -0.0035044798 0)
(-3.4306285e-10 -0.0049176523 0)
(-5.1071636e-10 -0.0056293846 0)
(5.6519996e-10 -0.0056293847 0)
(4.0030742e-10 -0.0049176525 0)
(5.3431591e-10 -0.00350448 0)
(-1.9201992e-11 -0.0013992401 0)
(-7.4070533e-11 -0.0013992399 0)
(-2.3399192e-10 -0.0035044796 0)
(-7.4340998e-10 -0.0049176523 0)
(7.8126344e-12 -0.0056293848 0)
(5.0503878e-11 -0.0056293848 0)
(7.8383929e-10 -0.0049176524 0)
(2.723018e-10 -0.0035044798 0)
(7.7577216e-11 -0.00139924 0)
(3.220414e-11 -0.0013992398 0)
(-4.9149143e-10 -0.0035044794 0)
(-3.2146266e-10 -0.0049176522 0)
(-4.9558346e-10 -0.0056293849 0)
(5.4795519e-10 -0.005629385 0)
(3.7682531e-10 -0.0049176524 0)
(5.1372186e-10 -0.0035044796 0)
(-1.9189635e-11 -0.0013992399 0)
(-7.2382921e-11 -0.0013992397 0)
(-2.1989328e-10 -0.0035044792 0)
(-7.162858e-10 -0.0049176522 0)
(1.582416e-11 -0.0056293851 0)
(4.042446e-11 -0.0056293851 0)
(7.5451596e-10 -0.0049176524 0)
(2.5684198e-10 -0.0035044794 0)
(7.529557e-11 -0.0013992397 0)
(3.1837748e-11 -0.0013992396 0)
(-4.7338016e-10 -0.0035044791 0)
(-3.0062604e-10 -0.0049176522 0)
(-4.8124118e-10 -0.0056293852 0)
(5.3137825e-10 -0.0056293853 0)
(3.5404087e-10 -0.0049176523 0)
(4.9394948e-10 -0.0035044792 0)
(-1.923443e-11 -0.0013992396 0)
(-7.0773143e-11 -0.0013992394 0)
(-2.062569e-10 -0.0035044789 0)
(-6.903399e-10 -0.0049176521 0)
(2.3552453e-11 -0.0056293854 0)
(3.0520392e-11 -0.0056293854 0)
(7.2633915e-10 -0.0049176523 0)
(2.4185361e-10 -0.003504479 0)
(7.3122858e-11 -0.0013992395 0)
(3.1542979e-11 -0.0013992393 0)
(-4.5603509e-10 -0.0035044787 0)
(-2.8052892e-10 -0.0049176521 0)
(-4.6764069e-10 -0.0056293855 0)
(5.1546401e-10 -0.0056293856 0)
(3.3196121e-10 -0.0049176523 0)
(4.7497929e-10 -0.0035044789 0)
(-1.9330516e-11 -0.0013992394 0)
(-6.9236498e-11 -0.0013992392 0)
(-1.930707e-10 -0.0035044786 0)
(-6.6551948e-10 -0.0049176521 0)
(3.1015617e-11 -0.0056293857 0)
(2.0815687e-11 -0.0056293857 0)
(6.9928484e-10 -0.0049176522 0)
(2.2733705e-10 -0.0035044787 0)
(7.1054526e-11 -0.0013992393 0)
(3.131469e-11 -0.0013992391 0)
(-4.3942291e-10 -0.0035044784 0)
(-2.6114489e-10 -0.0049176521 0)
(-4.5473345e-10 -0.0056293858 0)
(5.0020367e-10 -0.0056293859 0)
(3.105875e-10 -0.0049176522 0)
(4.5678859e-10 -0.0035044785 0)
(-1.9472454e-11 -0.0013992392 0)
(-6.7768508e-11 -0.001399239 0)
(-1.80321e-10 -0.0035044782 0)
(-6.4177072e-10 -0.0049176521 0)
(3.8231564e-11 -0.0056293859 0)
(1.1330169e-11 -0.005629386 0)
(6.7332431e-10 -0.0049176522 0)
(2.1328915e-10 -0.0035044784 0)
(6.9085837e-11 -0.0013992391 0)
(3.1147938e-11 -0.0013992389 0)
(-4.2350964e-10 -0.0035044781 0)
(-2.4244589e-10 -0.004917652 0)
(-4.4247231e-10 -0.0056293861 0)
(4.8558503e-10 -0.0056293861 0)
(2.8991596e-10 -0.0049176522 0)
(4.3935212e-10 -0.0035044782 0)
(-1.9655196e-11 -0.001399239 0)
(-6.6364912e-11 -0.0013992388 0)
(-1.6799327e-10 -0.0035044779 0)
(-6.1903946e-10 -0.004917652 0)
(4.5217473e-11 -0.0056293862 0)
(2.0795506e-12 -0.0056293862 0)
(6.4842507e-10 -0.0049176521 0)
(1.9970407e-10 -0.0035044781 0)
(6.7212055e-11 -0.0013992389 0)
(3.1037739e-11 -0.0013992387 0)
(-4.0826154e-10 -0.0035044778 0)
(-2.244036e-10 -0.004917652 0)
(-4.3081218e-10 -0.0056293863 0)
(4.7159309e-10 -0.0056293864 0)
(2.6993878e-10 -0.0049176521 0)
(4.2264286e-10 -0.0035044779 0)
(-1.9873959e-11 -0.0013992388 0)
(-6.5021847e-11 -0.0013992386 0)
(-1.5607285e-10 -0.0035044777 0)
(-5.9727283e-10 -0.004917652 0)
(5.1989142e-11 -0.0056293864 0)
(-6.924013e-12 -0.0056293865 0)
(6.2455203e-10 -0.0049176521 0)
(1.8657393e-10 -0.0035044778 0)
(6.542834e-11 -0.0013992387 0)
(3.097918e-11 -0.0013992385 0)
(-3.9364573e-10 -0.0035044775 0)
(-2.0699024e-10 -0.004917652 0)
(-4.1971053e-10 -0.0056293866 0)
(4.5821051e-10 -0.0056293866 0)
(2.5064506e-10 -0.0049176521 0)
(4.0663289e-10 -0.0035044776 0)
(-2.0124399e-11 -0.0013992386 0)
(-6.3735628e-11 -0.0013992384 0)
(-1.4454521e-10 -0.0035044774 0)
(-5.7641968e-10 -0.0049176519 0)
(5.8560625e-11 -0.0056293867 0)
(-1.5671437e-11 -0.0056293867 0)
(6.0166846e-10 -0.0049176521 0)
(1.738893e-10 -0.0035044775 0)
(6.3729937e-11 -0.0013992385 0)
(3.0967548e-11 -0.0013992383 0)
(-3.7963023e-10 -0.0035044773 0)
(-1.9017922e-10 -0.0049176519 0)
(-4.0912779e-10 -0.0056293868 0)
(4.454181e-10 -0.0056293868 0)
(2.3202171e-10 -0.004917652 0)
(3.9129366e-10 -0.0035044774 0)
(-2.0402408e-11 -0.0013992384 0)
(-6.2502827e-11 -0.0013992382 0)
(-1.333963e-10 -0.0035044771 0)
(-5.5643127e-10 -0.0049176519 0)
(6.4944141e-11 -0.0056293869 0)
(-2.4156487e-11 -0.005629387 0)
(5.7973658e-10 -0.004917652 0)
(1.6163986e-10 -0.0035044773 0)