/*--------------------------------*- C++ -*----------------------------------*\
| =========                 |                                                 |
| \\      /  F ield         | OpenFOAM: The Open Source CFD Toolbox           |
|  \\    /   O peration     | Version:  5.x                                   |
|   \\  /    A nd           | Web:      www.OpenFOAM.org                      |
|    \\/     M anipulation  |                                                 |
\*---------------------------------------------------------------------------*/
FoamFile
{
    version     2.0;
    format      ascii;
    class       volScalarField;
    location    "7";
    object      p;
}
// * * * * * * * * * * * * * * * * * * * * * * * * * * * * * * * * * * * * * //

dimensions      [0 2 -2 0 0 0 0];

internalField   nonuniform List<scalar> 
1920
(
-6655.9786
-6655.9858
-6655.9695
-6655.9541
-6655.9541
-6655.9695
-6655.9858
-6655.9786
-6655.9736
-6655.9802
-6655.9714
-6655.961
-6655.961
-6655.9714
-6655.9802
-6655.9736
-6655.9695
-6655.976
-6655.974
-6655.9686
-6655.9686
-6655.974
-6655.976
-6655.9695
-6655.9666
-6655.9748
-6655.9772
-6655.9751
-6655.9751
-6655.9772
-6655.9748
-6655.9666
-6655.9666
-6655.976
-6655.9812
-6655.9811
-6655.9811
-6655.9812
-6655.976
-6655.9666
-6655.9691
-6655.9795
-6655.9861
-6655.9873
-6655.9873
-6655.9861
-6655.9795
-6655.9691
-6655.9742
-6655.9847
-6655.9922
-6655.9941
-6655.9941
-6655.9922
-6655.9847
-6655.9742
-6655.9813
-6655.9916
-6655.9992
-6656.0016
-6656.0016
-6655.9992
-6655.9916
-6655.9813
-6655.9903
-6655.9999
-6656.0073
-6656.0098
-6656.0098
-6656.0073
-6655.9999
-6655.9903
-6656.0008
-6656.0096
-6656.0163
-6656.0188
-6656.0188
-6656.0162
-6656.0096
-6656.0008
-6656.0125
-6656.0201
-6656.0261
-6656.0284
-6656.0284
-6656.0261
-6656.0201
-6656.0125
-6656.025
-6656.0315
-6656.0366
-6656.0387
-6656.0387
-6656.0366
-6656.0316
-6656.025
-6656.0382
-6656.0435
-6656.0478
-6656.0496
-6656.0496
-6656.0478
-6656.0435
-6656.0382
-6656.0517
-6656.056
-6656.0594
-6656.0609
-6656.0609
-6656.0594
-6656.056
-6656.0517
-6656.0654
-6656.0687
-6656.0714
-6656.0726
-6656.0726
-6656.0714
-6656.0687
-6656.0654
-6656.0791
-6656.0816
-6656.0837
-6656.0847
-6656.0847
-6656.0837
-6656.0816
-6656.0791
-6656.0928
-6656.0946
-6656.0962
-6656.0969
-6656.0969
-6656.0962
-6656.0946
-6656.0928
-6656.1064
-6656.1077
-6656.1088
-6656.1094
-6656.1094
-6656.1088
-6656.1077
-6656.1064
-6656.1199
-6656.1207
-6656.1215
-6656.122
-6656.122
-6656.1215
-6656.1208
-6656.1199
-6656.1332
-6656.1338
-6656.1344
-6656.1347
-6656.1347
-6656.1344
-6656.1338
-6656.1333
-6656.1465
-6656.1468
-6656.1472
-6656.1474
-6656.1474
-6656.1472
-6656.1469
-6656.1465
-6656.1596
-6656.1598
-6656.1601
-6656.1602
-6656.1602
-6656.1601
-6656.1598
-6656.1596
-6656.1727
-6656.1728
-6656.173
-6656.1731
-6656.1731
-6656.173
-6656.1728
-6656.1727
-6656.1857
-6656.1858
-6656.1859
-6656.1859
-6656.1859
-6656.1859
-6656.1858
-6656.1857
-6656.1987
-6656.1987
-6656.1988
-6656.1988
-6656.1988
-6656.1988
-6656.1987
-6656.1987
-6656.2116
-6656.2116
-6656.2117
-6656.2117
-6656.2117
-6656.2117
-6656.2116
-6656.2116
-6656.2245
-6656.2245
-6656.2245
-6656.2246
-6656.2246
-6656.2246
-6656.2245
-6656.2245
-6656.2374
-6656.2374
-6656.2374
-6656.2375
-6656.2375
-6656.2374
-6656.2374
-6656.2374
-6656.2503
-6656.2503
-6656.2503
-6656.2504
-6656.2504
-6656.2503
-6656.2503
-6656.2503
-6656.2632
-6656.2632
-6656.2632
-6656.2632
-6656.2632
-6656.2632
-6656.2632
-6656.2632
-6656.2761
-6656.2761
-6656.2761
-6656.2761
-6656.2761
-6656.2761
-6656.2761
-6656.2761
-6656.289
-6656.289
-6656.289
-6656.289
-6656.289
-6656.289
-6656.289
-6656.2889
-6656.3018
-6656.3019
-6656.3019
-6656.3019
-6656.3019
-6656.3019
-6656.3019
-6656.3018
-6656.3147
-6656.3148
-6656.3148
-6656.3148
-6656.3148
-6656.3148
-6656.3148
-6656.3147
-6656.3276
-6656.3277
-6656.3277
-6656.3277
-6656.3277
-6656.3277
-6656.3277
-6656.3276
-6656.3405
-6656.3406
-6656.3406
-6656.3406
-6656.3406
-6656.3406
-6656.3406
-6656.3405
-6656.3535
-6656.3535
-6656.3535
-6656.3536
-6656.3535
-6656.3535
-6656.3535
-6656.3534
-6656.3664
-6656.3664
-6656.3664
-6656.3665
-6656.3665
-6656.3664
-6656.3664
-6656.3663
-6656.3793
-6656.3793
-6656.3794
-6656.3794
-6656.3794
-6656.3794
-6656.3793
-6656.3793
-6656.3922
-6656.3922
-6656.3923
-6656.3923
-6656.3923
-6656.3923
-6656.3922
-6656.3922
-6656.4051
-6656.4052
-6656.4052
-6656.4052
-6656.4052
-6656.4052
-6656.4051
-6656.4051
-6656.418
-6656.4181
-6656.4181
-6656.4181
-6656.4181
-6656.4181
-6656.4181
-6656.418
-6656.431
-6656.431
-6656.431
-6656.4311
-6656.431
-6656.431
-6656.431
-6656.4309
-6656.4439
-6656.4439
-6656.444
-6656.444
-6656.444
-6656.444
-6656.4439
-6656.4439
-6656.4568
-6656.4569
-6656.4569
-6656.4569
-6656.4569
-6656.4569
-6656.4569
-6656.4568
-6656.4698
-6656.4698
-6656.4698
-6656.4698
-6656.4698
-6656.4698
-6656.4698
-6656.4697
-6656.4827
-6656.4827
-6656.4828
-6656.4828
-6656.4828
-6656.4828
-6656.4827
-6656.4827
-6656.4956
-6656.4957
-6656.4957
-6656.4957
-6656.4957
-6656.4957
-6656.4957
-6656.4956
-6656.5086
-6656.5086
-6656.5086
-6656.5086
-6656.5086
-6656.5086
-6656.5086
-6656.5085
-6656.5215
-6656.5215
-6656.5216
-6656.5216
-6656.5216
-6656.5216
-6656.5215
-6656.5215
-6656.5344
-6656.5345
-6656.5345
-6656.5345
-6656.5345
-6656.5345
-6656.5345
-6656.5344
-6656.5474
-6656.5474
-6656.5475
-6656.5475
-6656.5475
-6656.5475
-6656.5474
-6656.5474
-6656.5603
-6656.5604
-6656.5604
-6656.5604
-6656.5604
-6656.5604
-6656.5604
-6656.5603
-6656.5733
-6656.5733
-6656.5734
-6656.5734
-6656.5734
-6656.5734
-6656.5733
-6656.5733
-6656.5862
-6656.5863
-6656.5863
-6656.5863
-6656.5863
-6656.5863
-6656.5863
-6656.5862
-6656.5992
-6656.5992
-6656.5993
-6656.5993
-6656.5993
-6656.5993
-6656.5992
-6656.5992
-6656.6121
-6656.6122
-6656.6122
-6656.6122
-6656.6122
-6656.6122
-6656.6122
-6656.6121
-6656.6251
-6656.6251
-6656.6252
-6656.6252
-6656.6252
-6656.6252
-6656.6251
-6656.6251
-6656.6381
-6656.6381
-6656.6381
-6656.6381
-6656.6381
-6656.6381
-6656.6381
-6656.6381
-6656.651
-6656.6511
-6656.6511
-6656.6511
-6656.6511
-6656.6511
-6656.6511
-6656.651
-6656.664
-6656.664
-6656.6641
-6656.6641
-6656.6641
-6656.6641
-6656.664
-6656.664
-6656.677
-6656.677
-6656.677
-6656.677
-6656.677
-6656.677
-6656.677
-6656.677
-6656.6899
-6656.69
-6656.69
-6656.69
-6656.69
-6656.69
-6656.69
-6656.6899
-6656.7029
-6656.7029
-6656.703
-6656.703
-6656.703
-6656.7029
-6656.7029
-6656.7029
-6656.7159
-6656.7159
-6656.7159
-6656.7159
-6656.7159
-6656.7159
-6656.7159
-6656.7159
-6656.7288
-6656.7289
-6656.7289
-6656.7289
-6656.7289
-6656.7289
-6656.7289
-6656.7288
-6656.7418
-6656.7418
-6656.7419
-6656.7419
-6656.7419
-6656.7419
-6656.7418
-6656.7418
-6656.7548
-6656.7548
-6656.7548
-6656.7548
-6656.7548
-6656.7548
-6656.7548
-6656.7548
-6656.7678
-6656.7678
-6656.7678
-6656.7678
-6656.7678
-6656.7678
-6656.7678
-6656.7678
-6656.7807
-6656.7808
-6656.7808
-6656.7808
-6656.7808
-6656.7808
-6656.7808
-6656.7807
-6656.7937
-6656.7937
-6656.7938
-6656.7938
-6656.7938
-6656.7938
-6656.7937
-6656.7937
-6656.8067
-6656.8067
-6656.8067
-6656.8067
-6656.8067
-6656.8067
-6656.8067
-6656.8067
-6656.8197
-6656.8197
-6656.8197
-6656.8197
-6656.8197
-6656.8197
-6656.8197
-6656.8197
-6656.8327
-6656.8327
-6656.8327
-6656.8327
-6656.8327
-6656.8327
-6656.8327
-6656.8327
-6656.8456
-6656.8457
-6656.8457
-6656.8457
-6656.8457
-6656.8457
-6656.8457
-6656.8456
-6656.8586
-6656.8586
-6656.8587
-6656.8587
-6656.8587
-6656.8587
-6656.8586
-6656.8586
-6656.8716
-6656.8716
-6656.8716
-6656.8717
-6656.8717
-6656.8716
-6656.8716
-6656.8716
-6656.8846
-6656.8846
-6656.8846
-6656.8846
-6656.8846
-6656.8846
-6656.8846
-6656.8846
-6656.8976
-6656.8976
-6656.8976
-6656.8976
-6656.8976
-6656.8976
-6656.8976
-6656.8976
-6656.9106
-6656.9106
-6656.9106
-6656.9106
-6656.9106
-6656.9106
-6656.9106
-6656.9106
-6656.9236
-6656.9236
-6656.9236
-6656.9236
-6656.9236
-6656.9236
-6656.9236
-6656.9235
-6656.9365
-6656.9366
-6656.9366
-6656.9366
-6656.9366
-6656.9366
-6656.9366
-6656.9365
-6656.9495
-6656.9496
-6656.9496
-6656.9496
-6656.9496
-6656.9496
-6656.9496
-6656.9495
-6656.9625
-6656.9625
-6656.9626
-6656.9626
-6656.9626
-6656.9626
-6656.9625
-6656.9625
-6656.9755
-6656.9755
-6656.9755
-6656.9756
-6656.9755
-6656.9755
-6656.9755
-6656.9755
-6656.9885
-6656.9885
-6656.9885
-6656.9885
-6656.9885
-6656.9885
-6656.9885
-6656.9885
-6657.0015
-6657.0015
-6657.0015
-6657.0015
-6657.0015
-6657.0015
-6657.0015
-6657.0015
-6657.0145
-6657.0145
-6657.0145
-6657.0145
-6657.0145
-6657.0145
-6657.0145
-6657.0145
-6657.0275
-6657.0275
-6657.0275
-6657.0275
-6657.0275
-6657.0275
-6657.0275
-6657.0275
-6657.0405
-6657.0405
-6657.0405
-6657.0405
-6657.0405
-6657.0405
-6657.0405
-6657.0405
-6657.0535
-6657.0535
-6657.0535
-6657.0535
-6657.0535
-6657.0535
-6657.0535
-6657.0535
-6657.0665
-6657.0665
-6657.0665
-6657.0665
-6657.0665
-6657.0665
-6657.0665
-6657.0665
-6657.0795
-6657.0795
-6657.0795
-6657.0795
-6657.0795
-6657.0795
-6657.0795
-6657.0795
-6657.0925
-6657.0925
-6657.0925
-6657.0925
-6657.0925
-6657.0925
-6657.0925
-6657.0925
-6657.1055
-6657.1055
-6657.1055
-6657.1055
-6657.1055
-6657.1055
-6657.1055
-6657.1055
-6657.1185
-6657.1185
-6657.1185
-6657.1185
-6657.1185
-6657.1185
-6657.1185
-6657.1185
-6657.1315
-6657.1315
-6657.1315
-6657.1315
-6657.1315
-6657.1315
-6657.1315
-6657.1315
-6657.1445
-6657.1445
-6657.1445
-6657.1445
-6657.1445
-6657.1445
-6657.1445
-6657.1445
-6657.1575
-6657.1575
-6657.1575
-6657.1575
-6657.1575
-6657.1575
-6657.1575
-6657.1574
-6657.1705
-6657.1705
-6657.1705
-6657.1705
-6657.1705
-6657.1705
-6657.1705
-6657.1705
-6657.1834
-6657.1835
-6657.1835
-6657.1835
-6657.1835
-6657.1835
-6657.1835
-6657.1834
-6657.1965
-6657.1965
-6657.1965
-6657.1965
-6657.1965
-6657.1965
-6657.1965
-6657.1964
-6657.2094
-6657.2095
-6657.2095
-6657.2095
-6657.2095
-6657.2095
-6657.2095
-6657.2094
-6657.2225
-6657.2225
-6657.2225
-6657.2225
-6657.2225
-6657.2225
-6657.2225
-6657.2224
-6657.2354
-6657.2355
-6657.2355
-6657.2355
-6657.2355
-6657.2355
-6657.2355
-6657.2354
-6657.2485
-6657.2485
-6657.2485
-6657.2485
-6657.2485
-6657.2485
-6657.2485
-6657.2484
-6657.2614
-6657.2615
-6657.2615
-6657.2615
-6657.2615
-6657.2615
-6657.2615
-6657.2614
-6657.2745
-6657.2745
-6657.2745
-6657.2745
-6657.2745
-6657.2745
-6657.2745
-6657.2744
-6657.2874
-6657.2875
-6657.2875
-6657.2875
-6657.2875
-6657.2875
-6657.2875
-6657.2874
-6657.3005
-6657.3005
-6657.3005
-6657.3005
-6657.3005
-6657.3005
-6657.3005
-6657.3005
-6657.3135
-6657.3135
-6657.3135
-6657.3135
-6657.3135
-6657.3135
-6657.3135
-6657.3134
-6657.3265
-6657.3265
-6657.3265
-6657.3265
-6657.3265
-6657.3265
-6657.3265
-6657.3265
-6657.3395
-6657.3395
-6657.3395
-6657.3395
-6657.3395
-6657.3395
-6657.3395
-6657.3395
-6657.3525
-6657.3525
-6657.3525
-6657.3525
-6657.3525
-6657.3525
-6657.3525
-6657.3525
-6657.3655
-6657.3655
-6657.3655
-6657.3655
-6657.3655
-6657.3655
-6657.3655
-6657.3655
-6657.3785
-6657.3785
-6657.3785
-6657.3785
-6657.3785
-6657.3785
-6657.3785
-6657.3785
-6657.3915
-6657.3915
-6657.3915
-6657.3915
-6657.3915
-6657.3915
-6657.3915
-6657.3915
-6657.4045
-6657.4045
-6657.4045
-6657.4045
-6657.4045
-6657.4045
-6657.4045
-6657.4045
-6657.4175
-6657.4175
-6657.4175
-6657.4175
-6657.4175
-6657.4175
-6657.4175
-6657.4175
-6657.4305
-6657.4305
-6657.4305
-6657.4305
-6657.4305
-6657.4305
-6657.4305
-6657.4305
-6657.4435
-6657.4435
-6657.4435
-6657.4435
-6657.4435
-6657.4435
-6657.4435
-6657.4435
-6657.4565
-6657.4565
-6657.4565
-6657.4565
-6657.4565
-6657.4565
-6657.4565
-6657.4565
-6657.4695
-6657.4695
-6657.4695
-6657.4695
-6657.4695
-6657.4695
-6657.4695
-6657.4695
-6657.4825
-6657.4825
-6657.4825
-6657.4825
-6657.4825
-6657.4825
-6657.4825
-6657.4825
-6657.4955
-6657.4955
-6657.4955
-6657.4955
-6657.4955
-6657.4955
-6657.4955
-6657.4955
-6657.5085
-6657.5085
-6657.5085
-6657.5085
-6657.5085
-6657.5085
-6657.5085
-6657.5085
-6657.5215
-6657.5215
-6657.5215
-6657.5215
-6657.5215
-6657.5215
-6657.5215
-6657.5215
-6657.5345
-6657.5345
-6657.5345
-6657.5345
-6657.5345
-6657.5345
-6657.5345
-6657.5345
-6657.5475
-6657.5475
-6657.5475
-6657.5475
-6657.5475
-6657.5475
-6657.5475
-6657.5475
-6657.5605
-6657.5605
-6657.5605
-6657.5605
-6657.5605
-6657.5605
-6657.5605
-6657.5605
-6657.5735
-6657.5735
-6657.5735
-6657.5735
-6657.5735
-6657.5735
-6657.5735
-6657.5735
-6657.5865
-6657.5865
-6657.5865
-6657.5865
-6657.5865
-6657.5865
-6657.5865
-6657.5865
-6657.5995
-6657.5995
-6657.5995
-6657.5995
-6657.5995
-6657.5995
-6657.5995
-6657.5995
-6657.6125
-6657.6125
-6657.6125
-6657.6125
-6657.6125
-6657.6125
-6657.6125
-6657.6125
-6657.6255
-6657.6255
-6657.6255
-6657.6255
-6657.6255
-6657.6255
-6657.6255
-6657.6255
-6657.6385
-6657.6385
-6657.6385
-6657.6385
-6657.6385
-6657.6385
-6657.6385
-6657.6385
-6657.6515
-6657.6515
-6657.6515
-6657.6515
-6657.6515
-6657.6515
-6657.6515
-6657.6515
-6657.6645
-6657.6645
-6657.6645
-6657.6645
-6657.6645
-6657.6645
-6657.6645
-6657.6645
-6657.6775
-6657.6775
-6657.6775
-6657.6775
-6657.6775
-6657.6775
-6657.6775
-6657.6775
-6657.6905
-6657.6905
-6657.6905
-6657.6905
-6657.6905
-6657.6905
-6657.6905
-6657.6905
-6657.7035
-6657.7035
-6657.7035
-6657.7035
-6657.7035
-6657.7035
-6657.7035
-6657.7035
-6657.7165
-6657.7165
-6657.7165
-6657.7165
-6657.7165
-6657.7165
-6657.7165
-6657.7165
-6657.7295
-6657.7295
-6657.7295
-6657.7295
-6657.7295
-6657.7295
-6657.7295
-6657.7295
-6657.7425
-6657.7425
-6657.7425
-6657.7425
-6657.7425
-6657.7425
-6657.7425
-6657.7425
-6657.7555
-6657.7555
-6657.7555
-6657.7555
-6657.7555
-6657.7555
-6657.7555
-6657.7555
-6657.7685
-6657.7685
-6657.7685
-6657.7685
-6657.7685
-6657.7685
-6657.7685
-6657.7685
-6657.7815
-6657.7815
-6657.7815
-6657.7815
-6657.7815
-6657.7815
-6657.7815
-6657.7815
-6657.7945
-6657.7945
-6657.7945
-6657.7945
-6657.7945
-6657.7945
-6657.7945
-6657.7945
-6657.8075
-6657.8075
-6657.8075
-6657.8075
-6657.8075
-6657.8075
-6657.8075
-6657.8075
-6657.8205
-6657.8205
-6657.8205
-6657.8205
-6657.8205
-6657.8205
-6657.8205
-6657.8205
-6657.8335
-6657.8335
-6657.8335
-6657.8335
-6657.8335
-6657.8335
-6657.8335
-6657.8335
-6657.8465
-6657.8465
-6657.8465
-6657.8465
-6657.8465
-6657.8465
-6657.8465
-6657.8465
-6657.8595
-6657.8595
-6657.8594
-6657.8594
-6657.8594
-6657.8594
-6657.8595
-6657.8595
-6657.8725
-6657.8724
-6657.8724
-6657.8724
-6657.8724
-6657.8724
-6657.8724
-6657.8725
-6657.8854
-6657.8854
-6657.8854
-6657.8854
-6657.8854
-6657.8854
-6657.8854
-6657.8854
-6657.8984
-6657.8984
-6657.8984
-6657.8984
-6657.8984
-6657.8984
-6657.8984
-6657.8984
-6657.9114
-6657.9114
-6657.9114
-6657.9114
-6657.9114
-6657.9114
-6657.9114
-6657.9114
-6657.9244
-6657.9244
-6657.9244
-6657.9244
-6657.9244
-6657.9244
-6657.9244
-6657.9244
-6657.9374
-6657.9374
-6657.9374
-6657.9374
-6657.9374
-6657.9374
-6657.9374
-6657.9374
-6657.9504
-6657.9504
-6657.9504
-6657.9504
-6657.9504
-6657.9504
-6657.9504
-6657.9504
-6657.9634
-6657.9634
-6657.9634
-6657.9634
-6657.9634
-6657.9634
-6657.9634
-6657.9634
-6657.9764
-6657.9764
-6657.9764
-6657.9764
-6657.9764
-6657.9764
-6657.9764
-6657.9764
-6657.9894
-6657.9894
-6657.9894
-6657.9894
-6657.9894
-6657.9894
-6657.9894
-6657.9894
-6658.0024
-6658.0024
-6658.0024
-6658.0024
-6658.0024
-6658.0024
-6658.0024
-6658.0024
-6658.0154
-6658.0154
-6658.0154
-6658.0154
-6658.0154
-6658.0154
-6658.0154
-6658.0154
-6658.0284
-6658.0284
-6658.0284
-6658.0284
-6658.0284
-6658.0284
-6658.0284
-6658.0284
-6658.0414
-6658.0414
-6658.0413
-6658.0413
-6658.0413
-6658.0413
-6658.0414
-6658.0413
-6658.0543
-6658.0543
-6658.0543
-6658.0543
-6658.0543
-6658.0543
-6658.0543
-6658.0543
-6658.0673
-6658.0673
-6658.0673
-6658.0673
-6658.0673
-6658.0673
-6658.0673
-6658.0673
-6658.0803
-6658.0803
-6658.0803
-6658.0803
-6658.0803
-6658.0803
-6658.0803
-6658.0803
-6658.0933
-6658.0933
-6658.0933
-6658.0933
-6658.0933
-6658.0933
-6658.0933
-6658.0933
-6658.1063
-6658.1063
-6658.1063
-6658.1063
-6658.1063
-6658.1063
-6658.1063
-6658.1063
-6658.1193
-6658.1193
-6658.1193
-6658.1193
-6658.1193
-6658.1193
-6658.1193
-6658.1193
-6658.1323
-6658.1323
-6658.1323
-6658.1323
-6658.1323
-6658.1323
-6658.1323
-6658.1323
-6658.1452
-6658.1452
-6658.1452
-6658.1452
-6658.1452
-6658.1452
-6658.1452
-6658.1452
-6658.1582
-6658.1582
-6658.1582
-6658.1582
-6658.1582
-6658.1582
-6658.1582
-6658.1582
-6658.1712
-6658.1712
-6658.1712
-6658.1712
-6658.1712
-6658.1712
-6658.1712
-6658.1712
-6658.1842
-6658.1842
-6658.1842
-6658.1842
-6658.1842
-6658.1842
-6658.1842
-6658.1842
-6658.1972
-6658.1972
-6658.1972
-6658.1972
-6658.1972
-6658.1972
-6658.1972
-6658.1972
-6658.2102
-6658.2102
-6658.2102
-6658.2102
-6658.2102
-6658.2102
-6658.2102
-6658.2102
-6658.2231
-6658.2231
-6658.2231
-6658.2231
-6658.2231
-6658.2231
-6658.2231
-6658.2231
-6658.2361
-6658.2361
-6658.2361
-6658.2361
-6658.2361
-6658.2361
-6658.2361
-6658.2361
-6658.2491
-6658.2491
-6658.2491
-6658.2491
-6658.2491
-6658.2491
-6658.2491
-6658.2491
-6658.2621
-6658.2621
-6658.2621
-6658.2621
-6658.2621
-6658.2621
-6658.2621
-6658.2621
-6658.2751
-6658.2751
-6658.2751
-6658.2751
-6658.2751
-6658.2751
-6658.2751
-6658.2751
-6658.2881
-6658.288
-6658.288
-6658.288
-6658.288
-6658.288
-6658.288
-6658.288
-6658.301
-6658.301
-6658.301
-6658.301
-6658.301
-6658.301
-6658.301
-6658.301
-6658.314
-6658.314
-6658.314
-6658.314
-6658.314
-6658.314
-6658.314
-6658.314
-6658.327
-6658.327
-6658.327
-6658.327
-6658.327
-6658.327
-6658.327
-6658.327
-6658.34
-6658.3399
-6658.3399
-6658.3399
-6658.3399
-6658.3399
-6658.3399
-6658.34
-6658.3529
-6658.3529
-6658.3529
-6658.3529
-6658.3529
-6658.3529
-6658.3529
-6658.3529
-6658.3659
-6658.3659
-6658.3659
-6658.3659
-6658.3659
-6658.3659
-6658.3659
-6658.3659
-6658.3789
-6658.3789
-6658.3789
-6658.3789
-6658.3789
-6658.3789
-6658.3789
-6658.3789
-6658.3919
-6658.3918
-6658.3918
-6658.3918
-6658.3918
-6658.3918
-6658.3918
-6658.3919
-6658.4048
-6658.4048
-6658.4048
-6658.4048
-6658.4048
-6658.4048
-6658.4048
-6658.4048
-6658.4178
-6658.4178
-6658.4178
-6658.4178
-6658.4178
-6658.4178
-6658.4178
-6658.4178
-6658.4308
-6658.4308
-6658.4308
-6658.4308
-6658.4308
-6658.4308
-6658.4308
-6658.4308
-6658.4437
-6658.4437
-6658.4437
-6658.4437
-6658.4437
-6658.4437
-6658.4437
-6658.4437
-6658.4567
-6658.4567
-6658.4567
-6658.4567
-6658.4567
-6658.4567
-6658.4567
-6658.4567
-6658.4697
-6658.4697
-6658.4697
-6658.4697
-6658.4697
-6658.4697
-6658.4697
-6658.4697
-6658.4826
-6658.4826
-6658.4826
-6658.4826
-6658.4826
-6658.4826
-6658.4826
-6658.4826
-6658.4956
-6658.4956
-6658.4956
-6658.4956
-6658.4956
-6658.4956
-6658.4956
-6658.4956
-6658.5086
-6658.5086
-6658.5086
-6658.5086
-6658.5086
-6658.5086
-6658.5086
-6658.5086
-6658.5215
-6658.5215
-6658.5215
-6658.5215
-6658.5215
-6658.5215
-6658.5215
-6658.5215
-6658.5345
-6658.5345
-6658.5345
-6658.5345
-6658.5345
-6658.5345
-6658.5345
-6658.5345
-6658.5475
-6658.5475
-6658.5474
-6658.5474
-6658.5474
-6658.5474
-6658.5475
-6658.5475
-6658.5604
-6658.5604
-6658.5604
-6658.5604
-6658.5604
-6658.5604
-6658.5604
-6658.5604
-6658.5734
-6658.5734
-6658.5734
-6658.5734
-6658.5734
-6658.5734
-6658.5734
-6658.5734
-6658.5863
-6658.5863
-6658.5863
-6658.5863
-6658.5863
-6658.5863
-6658.5863
-6658.5864
-6658.5993
-6658.5993
-6658.5993
-6658.5993
-6658.5993
-6658.5993
-6658.5993
-6658.5993
-6658.6123
-6658.6122
-6658.6122
-6658.6122
-6658.6122
-6658.6122
-6658.6122
-6658.6123
-6658.6252
-6658.6252
-6658.6252
-6658.6252
-6658.6252
-6658.6252
-6658.6252
-6658.6252
-6658.6382
-6658.6381
-6658.6381
-6658.6381
-6658.6381
-6658.6381
-6658.6381
-6658.6382
-6658.6511
-6658.6511
-6658.6511
-6658.6511
-6658.6511
-6658.6511
-6658.6511
-6658.6511
-6658.6641
-6658.664
-6658.664
-6658.664
-6658.664
-6658.664
-6658.664
-6658.6641
-6658.677
-6658.677
-6658.677
-6658.6769
-6658.677
-6658.677
-6658.677
-6658.677
-6658.69
-6658.6899
-6658.6899
-6658.6899
-6658.6899
-6658.6899
-6658.6899
-6658.69
-6658.7029
-6658.7029
-6658.7028
-6658.7028
-6658.7028
-6658.7028
-6658.7029
-6658.7029
-6658.7159
-6658.7158
-6658.7158
-6658.7158
-6658.7158
-6658.7158
-6658.7158
-6658.7159
-6658.7288
-6658.7288
-6658.7287
-6658.7287
-6658.7287
-6658.7287
-6658.7288
-6658.7288
-6658.7418
-6658.7417
-6658.7416
-6658.7416
-6658.7416
-6658.7416
-6658.7417
-6658.7418
-6658.7548
-6658.7547
-6658.7546
-6658.7545
-6658.7545
-6658.7546
-6658.7547
-6658.7548
-6658.7678
-6658.7676
-6658.7675
-6658.7674
-6658.7674
-6658.7675
-6658.7676
-6658.7678
-6658.7808
-6658.7806
-6658.7804
-6658.7802
-6658.7802
-6658.7804
-6658.7806
-6658.7808
-6658.7939
-6658.7936
-6658.7933
-6658.7931
-6658.7931
-6658.7933
-6658.7936
-6658.7939
-6658.807
-6658.8065
-6658.8061
-6658.8059
-6658.8059
-6658.8061
-6658.8065
-6658.807
-6658.8202
-6658.8195
-6658.8189
-6658.8186
-6658.8186
-6658.8189
-6658.8195
-6658.8201
-6658.8334
-6658.8324
-6658.8317
-6658.8313
-6658.8313
-6658.8317
-6658.8324
-6658.8333
-6658.8466
-6658.8454
-6658.8444
-6658.8439
-6658.8439
-6658.8443
-6658.8453
-6658.8465
-6658.8598
-6658.8582
-6658.857
-6658.8564
-6658.8564
-6658.8569
-6658.8582
-6658.8598
-6658.873
-6658.871
-6658.8694
-6658.8687
-6658.8687
-6658.8693
-6658.8709
-6658.8729
-6658.8861
-6658.8835
-6658.8817
-6658.8809
-6658.8809
-6658.8816
-6658.8835
-6658.886
-6658.8991
-6658.8959
-6658.8937
-6658.8929
-6658.8928
-6658.8936
-6658.8958
-6658.8989
-6658.9117
-6658.908
-6658.9054
-6658.9046
-6658.9046
-6658.9054
-6658.9079
-6658.9115
-6658.9238
-6658.9196
-6658.9169
-6658.916
-6658.916
-6658.9168
-6658.9195
-6658.9236
-6658.9353
-6658.9307
-6658.9279
-6658.9273
-6658.9272
-6658.9278
-6658.9306
-6658.9351
-6658.9459
-6658.9411
-6658.9385
-6658.9383
-6658.9383
-6658.9384
-6658.9409
-6658.9457
-6658.9555
-6658.9506
-6658.9486
-6658.9492
-6658.9491
-6658.9485
-6658.9505
-6658.9553
-6658.9644
-6658.9597
-6658.9581
-6658.959
-6658.9589
-6658.958
-6658.9595
-6658.9641
-6658.9718
-6658.9694
-6658.9674
-6658.9664
-6658.9664
-6658.9673
-6658.9693
-6658.9716
)
;

boundaryField
{
    left
    {
        type            zeroGradient;
    }
    right
    {
        type            WKBC;
        index           0;
        value           uniform -6658.9727;
    }
    walls
    {
        type            zeroGradient;
    }
    frontAndBack
    {
        type            empty;
    }
}


// ************************************************************************* //
