/*--------------------------------*- C++ -*----------------------------------*\
| =========                 |                                                 |
| \\      /  F ield         | OpenFOAM: The Open Source CFD Toolbox           |
|  \\    /   O peration     | Version:  5.x                                   |
|   \\  /    A nd           | Web:      www.OpenFOAM.org                      |
|    \\/     M anipulation  |                                                 |
\*---------------------------------------------------------------------------*/
FoamFile
{
    version     2.0;
    format      ascii;
    class       volSymmTensorField;
    location    "7";
    object      sigma;
}
// * * * * * * * * * * * * * * * * * * * * * * * * * * * * * * * * * * * * * //

dimensions      [0 2 -2 0 0 0 0];

internalField   nonuniform List<symmTensor> 
1920
(
(0.0029334049 0.015625171 0 -0.0096267629 0 0)
(-0.00047365573 0.0061632321 0 0.0017247511 0 0)
(-0.0019422852 0.0037983205 0 0.0015036632 0 0)
(-0.0015031837 0.0011995646 0 0.0014983953 0 0)
(-0.0015031505 -0.0011995753 0 0.0014983614 0 0)
(-0.0019422931 -0.0037982852 0 0.0015036723 0 0)
(-0.00047366024 -0.0061632244 0 0.0017247557 0 0)
(0.0029334036 -0.015625171 0 -0.0096267593 0 0)
(0.0052597827 0.010855023 0 -0.0053386786 0 0)
(0.00058136059 0.002181232 0 0.00058262839 0 0)
(-0.003240201 0.00083160912 0 0.0027489822 0 0)
(-0.0032421952 0.00043627339 0 0.0029702943 0 0)
(-0.0032421759 -0.000436277 0 0.0029702734 0 0)
(-0.003240211 -0.00083158567 0 0.0027489922 0 0)
(0.00058136403 -0.0021812296 0 0.00058262122 0 0)
(0.0052597828 -0.010855025 0 -0.0053386793 0 0)
(0.0047621934 0.0093208309 0 -0.0062407668 0 0)
(0.0012010526 0.0012977055 0 -0.00065338698 0 0)
(-0.0027366646 0.00031730238 0 0.0024439466 0 0)
(-0.0034703762 0.00011126293 0 0.0033023546 0 0)
(-0.0034704011 -0.00011125834 0 0.0033023817 0 0)
(-0.0027366486 -0.00031731886 0 0.0024439271 0 0)
(0.0012010595 -0.0012977176 0 -0.00065339256 0 0)
(0.0047621959 -0.0093208321 0 -0.0062407712 0 0)
(0.0037102939 0.0086589252 0 -0.0051992359 0 0)
(0.0013599305 0.0017996682 0 -0.0011527118 0 0)
(-0.0020426133 0.0003659023 0 0.0019121123 0 0)
(-0.0031777458 3.6177332e-05 0 0.0031221549 0 0)
(-0.0031776915 -3.6190014e-05 0 0.0031221023 0 0)
(-0.0020427188 -0.0003657923 0 0.0019122159 0 0)
(0.0013599351 -0.001799657 0 -0.0011527162 0 0)
(0.0037102997 -0.008658925 0 -0.0051992417 0 0)
(0.0028071637 0.0082995873 0 -0.0039319079 0 0)
(0.001252556 0.0024774219 0 -0.0012128789 0 0)
(-0.001452361 0.0007681873 0 0.0013649263 0 0)
(-0.0027007627 0.00012859261 0 0.0026665056 0 0)
(-0.0027009014 -0.0001285918 0 0.0026666456 0 0)
(-0.0014527405 -0.00076791399 0 0.0013653028 0 0)
(0.0012525507 -0.0024774165 0 -0.0012128734 0 0)
(0.002807175 -0.008299585 0 -0.0039319198 0 0)
(0.0021492497 0.0080578179 0 -0.0030424769 0 0)
(0.001060658 0.0031798161 0 -0.0011242061 0 0)
(-0.0010693737 0.0011589997 0 0.00099599862 0 0)
(-0.0019807859 0.00029160869 0 0.0019599443 0 0)
(-0.0019807272 -0.00029163762 0 0.0019598826 0 0)
(-0.0010688539 -0.0011594613 0 0.00099548168 0 0)
(0.001060693 -0.0031798094 0 -0.0011242414 0 0)
(0.0021492538 -0.0080578105 0 -0.0030424799 0 0)
(0.0014723315 0.0078111535 0 -0.0022442554 0 0)
(0.00081659298 0.0038189669 0 -0.00095950646 0 0)
(-0.00069250222 0.0016377507 0 0.00062492583 0 0)
(-0.0015173853 0.00043969888 0 0.0015071527 0 0)
(-0.001517353 -0.00043971457 0 0.001507121 0 0)
(-0.00069242051 -0.001637806 0 0.00062484313 0 0)
(0.00081661353 -0.0038189571 0 -0.00095952597 0 0)
(0.0014723326 -0.0078111396 0 -0.0022442557 0 0)
(0.0010288427 0.0076533455 0 -0.0017391625 0 0)
(0.00063793895 0.0041912278 0 -0.00083109367 0 0)
(-0.00043966018 0.0020427535 0 0.00036984787 0 0)
(-0.0011273129 0.00057622007 0 0.0011235297 0 0)
(-0.0011273798 -0.00057620267 0 0.0011235954 0 0)
(-0.00043966803 -0.0020427167 0 0.00036985599 0 0)
(0.00063794104 -0.0041912467 0 -0.00083109777 0 0)
(0.0010288408 -0.0076533314 0 -0.0017391589 0 0)
(0.00070744019 0.0075454025 0 -0.0013799326 0 0)
(0.00046017835 0.0045319003 0 -0.00069293084 0 0)
(-0.00028955197 0.0023333766 0 0.00021253651 0 0)
(-0.00083138185 0.00068695718 0 0.00082905253 0 0)
(-0.00083125274 -0.00068701026 0 0.00082892614 0 0)
(-0.00028950776 -0.0023334271 0 0.00021249207 0 0)
(0.00046020929 -0.0045318627 0 -0.00069296081 0 0)
(0.00070745705 -0.0075453879 0 -0.0013799486 0 0)
(0.00047592135 0.0074699971 0 -0.0011251517 0 0)
(0.00033328812 0.0047498492 0 -0.0005930996 0 0)
(-0.00018462032 0.0025676743 0 9.901375e-05 0 0)
(-0.00057050367 0.00079045904 0 0.00056729534 0 0)
(-0.0005706549 -0.00079040509 0 0.00056744498 0 0)
(-0.00018463783 -0.0025676155 0 9.9032766e-05 0 0)
(0.00033328395 -0.0047498632 0 -0.00059309631 0 0)
(0.00047591656 -0.0074699759 0 -0.0011251445 0 0)
(0.00031288552 0.0074187598 0 -0.00094828441 0 0)
(0.00023632226 0.0049059524 0 -0.00051507587 0 0)
(-0.00011524765 0.002743333 0 2.2061196e-05 0 0)
(-0.00038963212 0.00086586833 0 0.00038454537 0 0)
(-0.00038949673 -0.00086593542 0 0.00038440996 0 0)
(-0.0001152153 -0.0027433906 0 2.2027015e-05 0 0)
(0.00023634554 -0.0049059134 0 -0.00051509724 0 0)
(0.00031290195 -0.0074187413 0 -0.00094829894 0 0)
(0.00020186567 0.0073849073 0 -0.00082918125 0 0)
(0.00016278602 0.0050177262 0 -0.00045447133 0 0)
(-7.0509762e-05 0.0028704468 0 -2.8667303e-05 0 0)
(-0.00026037434 0.00092215625 0 0.00025337455 0 0)
(-0.00026038773 -0.00092215569 0 0.00025338759 0 0)
(-7.0526833e-05 -0.0028703966 0 -2.8648778e-05 0 0)
(0.00016277608 -0.0050177345 0 -0.00045446201 0 0)
(0.00020185905 -0.0073848827 0 -0.00082917187 0 0)
(0.00012815167 0.0073630201 0 -0.00075079802 0 0)
(0.00010954742 0.0050944148 0 -0.00040977042 0 0)
(-4.2252305e-05 0.0029599675 0 -6.1417704e-05 0 0)
(-0.00017143852 0.00096230691 0 0.00016280252 0 0)
(-0.00017159109 -0.00096226043 0 0.00016295523 0 0)
(-4.2238814e-05 -0.0029600132 0 -6.1432948e-05 0 0)
(0.00010956041 -0.0050943822 0 -0.00040978144 0 0)
(0.00012816243 -0.0073629993 0 -0.00075080608 0 0)
(7.9922893e-05 0.0073490632 0 -0.00069989813 0 0)
(7.228405e-05 0.0051454699 0 -0.00037803546 0 0)
(-2.468032e-05 0.0030217165 0 -8.2209542e-05 0 0)
(-0.00011102305 0.00099039867 0 0.00010113033 0 0)
(-0.00011075502 -0.00099052137 0 0.00010086104 0 0)
(-2.469566e-05 -0.0030216848 0 -8.2193251e-05 0 0)
(7.2270631e-05 -0.0051454734 0 -0.00037802198 0 0)
(7.9917105e-05 -0.0073490393 0 -0.0006998894 0 0)
(4.8847703e-05 0.0073403165 0 -0.00066733391 0 0)
(4.6809405e-05 0.0051788264 0 -0.00035606832 0 0)
(-1.3993727e-05 0.0030634305 0 -9.5126051e-05 0 0)
(-7.0358016e-05 0.0010098167 0 5.9555221e-05 0 0)
(-7.0706135e-05 -0.0010096855 0 5.9904517e-05 0 0)
(-1.3993438e-05 -0.0030634624 0 -9.5127741e-05 0 0)
(4.6812586e-05 -0.0051788042 0 -0.00035606985 0 0)
(4.8852423e-05 -0.007340296 0 -0.00066733563 0 0)
(2.9180558e-05 0.0073349513 0 -0.00064686407 0 0)
(2.9740115e-05 0.0052002225 0 -0.00034118983 0 0)
(-7.5956876e-06 0.0030912031 0 -0.00010302114 0 0)
(-4.4151114e-05 0.0010226861 0 3.2718352e-05 0 0)
(-4.3615352e-05 -0.0010229402 0 3.2179491e-05 0 0)
(-7.6086878e-06 -0.0030911893 0 -0.00010300778 0 0)
(2.9727021e-05 -0.0052002224 0 -0.00034117626 0 0)
(2.9175201e-05 -0.0073349299 0 -0.00064685581 0 0)
(1.6936076e-05 0.0073317386 0 -0.00063421082 0 0)
(1.8493444e-05 0.0052137481 0 -0.0003312858 0 0)
(-3.8892921e-06 0.0031092917 0 -0.00010770503 0 0)
(-2.7169075e-05 0.0010312137 0 1.5314408e-05 0 0)
(-2.7541478e-05 -0.0010310649 0 1.5688575e-05 0 0)
(-3.8953718e-06 -0.0031093121 0 -0.00010770003 0 0)
(1.8490149e-05 -0.0052137354 0 -0.00033128129 0 0)
(1.6936217e-05 -0.0073317199 0 -0.00063420808 0 0)
(9.4878177e-06 0.0073298784 0 -0.00062657307 0 0)
(1.1242167e-05 0.005222104 0 -0.00032483922 0 0)
(-1.7937177e-06 0.0031209279 0 -0.00011042492 0 0)
(-1.6326088e-05 0.0010367811 0 4.1962207e-06 0 0)
(-1.6187474e-05 -0.0010368643 0 4.0562042e-06 0 0)
(-1.8038635e-06 -0.0031209268 0 -0.00011041486 0 0)
(1.1231456e-05 -0.0052221021 0 -0.00032482795 0 0)
(9.4830674e-06 -0.0073298603 0 -0.00062656568 0 0)
(5.0437198e-06 0.007328844 0 -0.00062205601 0 0)
(6.6317236e-06 0.0052271916 0 -0.00032070319 0 0)
(-6.715253e-07 0.0031282199 0 -0.00011193296 0 0)
(-9.3613432e-06 0.0010404342 0 -2.9449769e-06 0 0)
(-9.5376551e-06 -0.0010403684 0 -2.7679655e-06 0 0)
(-6.79159e-07 -0.0031282319 0 -0.00011192614 0 0)
(6.6255184e-06 -0.0052271855 0 -0.00032069617 0 0)
(5.0413025e-06 -0.007328828 0 -0.00062205107 0 0)
(2.5311297e-06 0.0073283148 0 -0.00061953095 0 0)
(3.7827459e-06 0.0052301886 0 -0.00031812236 0 0)
(-1.0341645e-07 0.0031327314 0 -0.00011273595 0 0)
(-5.2154062e-06 0.0010426703 0 -7.1992274e-06 0 0)
(-4.9431018e-06 -0.0010428215 0 -7.473724e-06 0 0)
(-1.1083371e-07 -0.0031327371 0 -0.00011272894 0 0)
(3.7750239e-06 -0.0052301858 0 -0.00031811412 0 0)
(2.52774e-06 -0.0073283 0 -0.00061952528 0 0)
(1.0723679e-06 0.0073280558 0 -0.0006180845 0 0)
(2.0449144e-06 0.0052319208 0 -0.00031653496 0 0)
(1.5097744e-07 0.0031354292 0 -0.00011312575 0 0)
(-2.4701562e-06 0.0010441808 0 -1.001196e-05 0 0)
(-2.8284939e-06 -0.0010440151 0 -9.6512711e-06 0 0)
(1.4418657e-07 -0.003135436 0 -0.00011311961 0 0)
(2.0381383e-06 -0.0052319182 0 -0.00031652765 0 0)
(1.0689003e-06 -0.0073280423 0 -0.00061807889 0 0)
(3.1462125e-07 0.0073279604 0 -0.00061734993 0 0)
(1.0312466e-06 0.0052328674 0 -0.00031559772 0 0)
(2.3909631e-07 0.0031370105 0 -0.00011329147 0 0)
(-1.3068556e-06 0.0010448662 0 -1.1210814e-05 0 0)
(-1.0567707e-06 -0.0010450132 0 -1.1463434e-05 0 0)
(2.3349936e-07 -0.0031370182 0 -0.00011328639 0 0)
(1.0259551e-06 -0.0052328644 0 -0.000315592 0 0)
(3.1193316e-07 -0.0073279481 0 -0.00061734533 0 0)
(-5.0460821e-08 0.0073279518 0 -0.00061700807 0 0)
(4.4830209e-07 0.0052333634 0 -0.00031505475 0 0)
(2.4589599e-07 0.0031378928 0 -0.00011333779 0 0)
(-3.5603111e-07 0.0010454283 0 -1.2184441e-05 0 0)
(-4.0472455e-07 -0.0010454164 0 -1.2135563e-05 0 0)
(2.405456e-07 -0.0031378971 0 -0.00011333301 0 0)
(4.4211855e-07 -0.005233362 0 -0.00031504821 0 0)
(-5.3668163e-08 -0.0073279405 0 -0.00061700312 0 0)
(-2.086526e-07 0.0073279827 0 -0.00061687164 0 0)
(1.3964315e-07 0.0052335946 0 -0.00031476055 0 0)
(2.1547011e-07 0.0031383628 0 -0.00011332786 0 0)
(-2.7094343e-09 0.0010456622 0 -1.254812e-05 0 0)
(-5.384643e-08 -0.0010456454 0 -1.2497043e-05 0 0)
(2.1083242e-07 -0.0031383699 0 -0.00011332371 0 0)
(1.358123e-07 -0.005233592 0 -0.00031475639 0 0)
(-2.1127178e-07 -0.0073279723 0 -0.00061686742 0 0)
(-2.4658824e-07 0.0073280242 0 -0.00061685061 0 0)
(-1.4408225e-08 0.0052336878 0 -0.00031461221 0 0)
(1.7571528e-07 0.00313859 0 -0.00011329496 0 0)
(1.4779555e-07 0.0010457744 0 -1.2703935e-05 0 0)
(1.366543e-07 -0.001045779 0 -1.2692976e-05 0 0)
(1.716311e-07 -0.0031385938 0 -0.00011329134 0 0)
(-1.9504593e-08 -0.0052336865 0 -0.00031460682 0 0)
(-2.4923816e-07 -0.0073280145 0 -0.00061684655 0 0)
(-2.3179416e-07 0.0073280679 0 -0.00061687984 0 0)
(-9.0209786e-08 0.0052337126 0 -0.00031453396 0 0)
(1.3765029e-07 0.0031386819 0 -0.00011325918 0 0)
(1.9817544e-07 0.0010458264 0 -1.2756124e-05 0 0)
(1.830346e-07 -0.0010458245 0 -1.2741168e-05 0 0)
(1.3339621e-07 -0.0031386871 0 -0.00011325531 0 0)
(-9.3991231e-08 -0.0052337109 0 -0.00031452993 0 0)
(-2.3437483e-07 -0.0073280588 0 -0.0006168759 0 0)
(-1.961177e-07 0.0073281023 0 -0.00061692507 0 0)
(-1.0578643e-07 0.0052336963 0 -0.00031451667 0 0)
(1.0147071e-07 0.0031387099 0 -0.00011322093 0 0)
(1.9780242e-07 0.00104584 0 -1.2756401e-05 0 0)
(1.9905026e-07 -0.0010458497 0 -1.2757888e-05 0 0)
(9.757894e-08 -0.0031387139 0 -0.00011321744 0 0)
(-1.1044963e-07 -0.0052336946 0 -0.00031451164 0 0)
(-1.9805189e-07 -0.0073280944 0 -0.000616922 0 0)
(-1.5460333e-07 0.0073281332 0 -0.0006169743 0 0)
(-1.0199786e-07 0.0052336646 0 -0.0003145169 0 0)
(7.2482087e-08 0.0031386952 0 -0.00011319012 0 0)
(1.784294e-07 0.001045845 0 -1.2736634e-05 0 0)
(1.7837884e-07 -0.0010458514 0 -1.2736869e-05 0 0)
(6.8861313e-08 -0.0031386994 0 -0.00011318677 0 0)
(-1.0559363e-07 -0.0052336634 0 -0.00031451306 0 0)
(-1.5643164e-07 -0.007328126 0 -0.00061697139 0 0)
(-1.184717e-07 0.0073281547 0 -0.00061701527 0 0)
(-8.5501969e-08 0.0052336355 0 -0.00031453049 0 0)
(5.1087873e-08 0.0031386682 0 -0.00011316574 0 0)
(1.5197821e-07 0.0010458356 0 -1.2709772e-05 0 0)
(1.49803e-07 -0.0010458434 0 -1.2707737e-05 0 0)
(4.7605908e-08 -0.0031386715 0 -0.00011316256 0 0)
(-8.9395382e-08 -0.005233635 0 -0.00031452633 0 0)
(-1.204038e-07 -0.0073281476 0 -0.00061701235 0 0)
(-8.9377227e-08 0.007328172 0 -0.00061704846 0 0)
(-6.9738429e-08 0.0052336097 0 -0.00031454275 0 0)
(3.4131126e-08 0.0031386365 0 -0.0001131469 0 0)
(1.1701033e-07 0.0010458251 0 -1.2673929e-05 0 0)
(1.1584829e-07 -0.001045831 0 -1.2672996e-05 0 0)
(3.1352128e-08 -0.0031386407 0 -0.00011314437 0 0)
(-7.2940191e-08 -0.0052336087 0 -0.00031453937 0 0)
(-9.101739e-08 -0.007328166 0 -0.00061704591 0 0)
(-6.3801385e-08 0.0073281846 0 -0.00061707618 0 0)
(-5.3719164e-08 0.0052335874 0 -0.00031455729 0 0)
(2.4097664e-08 0.0031386077 0 -0.00011313459 0 0)
(9.4295494e-08 0.0010458157 0 -1.2650794e-05 0 0)
(9.1088712e-08 -0.0010458205 0 -1.2647693e-05 0 0)
(2.0980085e-08 -0.0031386103 0 -0.00011313174 0 0)
(-5.7101133e-08 -0.0052335867 0 -0.00031455367 0 0)
(-6.5430069e-08 -0.0073281788 0 -0.00061707372 0 0)
(-4.6837034e-08 0.0073281943 0 -0.00061709528 0 0)
(-4.0952602e-08 0.0052335702 0 -0.00031456766 0 0)
(1.6475511e-08 0.0031385867 0 -0.00011312575 0 0)
(6.6723123e-08 0.0010458035 0 -1.2622484e-05 0 0)
(6.5229565e-08 -0.0010458083 0 -1.2621175e-05 0 0)
(1.3546502e-08 -0.0031385896 0 -0.00011312301 0 0)
(-4.3825689e-08 -0.0052335696 0 -0.00031456463 0 0)
(-4.8283505e-08 -0.0073281894 0 -0.00061709308 0 0)
(-3.2333759e-08 0.0073282007 0 -0.00061711058 0 0)
(-3.0241754e-08 0.0052335564 0 -0.00031457791 0 0)
(1.2855873e-08 0.0031385686 0 -0.0001131204 0 0)
(5.039987e-08 0.0010457968 0 -1.2605931e-05 0 0)
(4.9137452e-08 -0.0010458008 0 -1.2604769e-05 0 0)
(1.0257709e-08 -0.0031385709 0 -0.00011311802 0 0)
(-3.3093502e-08 -0.0052335559 0 -0.00031457485 0 0)
(-3.3748663e-08 -0.007328196 0 -0.00061710847 0 0)
(-2.3436282e-08 0.0073282058 0 -0.00061712061 0 0)
(-2.22413e-08 0.0052335466 0 -0.00031458443 0 0)
(8.3136343e-09 0.0031385551 0 -0.00011311544 0 0)
(3.4739826e-08 0.0010457888 0 -1.2589788e-05 0 0)
(3.3481775e-08 -0.0010457921 0 -1.2588664e-05 0 0)
(5.8308949e-09 -0.0031385573 0 -0.0001131131 0 0)
(-2.4698662e-08 -0.0052335464 0 -0.00031458183 0 0)
(-2.4690884e-08 -0.0073282019 0 -0.00061711874 0 0)
(-1.6192441e-08 0.007328209 0 -0.00061712807 0 0)
(-1.6409481e-08 0.0052335389 0 -0.0003145903 0 0)
(6.4866631e-09 0.0031385439 0 -0.00011311252 0 0)
(2.6038613e-08 0.0010457856 0 -1.2581033e-05 0 0)
(2.5531212e-08 -0.0010457889 0 -1.2580613e-05 0 0)
(4.4138966e-09 -0.0031385458 0 -0.0001131106 0 0)
(-1.8748532e-08 -0.0052335387 0 -0.00031458779 0 0)
(-1.7408858e-08 -0.0073282053 0 -0.00061712628 0 0)
(-1.1820694e-08 0.0073282118 0 -0.00061713313 0 0)
(-1.1686539e-08 0.0052335336 0 -0.000314594 0 0)
(4.3209178e-09 0.0031385362 0 -0.00011311029 0 0)
(1.8826062e-08 0.0010457813 0 -1.2573518e-05 0 0)
(1.7811722e-08 -0.0010457837 0 -1.2572605e-05 0 0)
(2.3804054e-09 -0.0031385382 0 -0.00011310846 0 0)
(-1.3730944e-08 -0.0052335336 0 -0.00031459182 0 0)
(-1.2911635e-08 -0.0073282086 0 -0.00061713152 0 0)
(-8.4858611e-09 0.0073282136 0 -0.00061713644 0 0)
(-9.1095251e-09 0.0052335296 0 -0.00031459688 0 0)
(3.5696868e-09 0.0031385299 0 -0.0001131088 0 0)
(1.4421075e-08 0.0010457797 0 -1.2569151e-05 0 0)
(1.4086588e-08 -0.0010457826 0 -1.256889e-05 0 0)
(1.9522991e-09 -0.0031385316 0 -0.0001131073 0 0)
(-1.0978398e-08 -0.0052335295 0 -0.00031459486 0 0)
(-9.517117e-09 -0.0073282106 0 -0.00061713493 0 0)
(-6.558178e-09 0.0073282151 0 -0.00061713885 0 0)
(-6.4220007e-09 0.0052335267 0 -0.00031459874 0 0)
(2.482738e-09 0.0031385254 0 -0.00011310783 0 0)
(1.1271792e-08 0.0010457777 0 -1.2565791e-05 0 0)
(1.070261e-08 -0.0010457799 0 -1.256531e-05 0 0)
(1.0208482e-09 -0.0031385272 0 -0.00011310646 0 0)
(-8.0476215e-09 -0.0052335268 0 -0.000314597 0 0)
(-7.4727438e-09 -0.0073282126 0 -0.00061713751 0 0)
(-5.0176349e-09 0.0073282162 0 -0.00061714027 0 0)
(-5.6090243e-09 0.0052335247 0 -0.00031459999 0 0)
(2.3234212e-09 0.0031385217 0 -0.00011310708 0 0)
(9.1411513e-09 0.0010457767 0 -1.2563746e-05 0 0)
(8.9365175e-09 -0.0010457794 0 -1.2563603e-05 0 0)
(1.1106547e-09 -0.0031385232 0 -0.00011310597 0 0)
(-7.0501136e-09 -0.0052335247 0 -0.00031459844 0 0)
(-5.8616988e-09 -0.007328214 0 -0.00061713903 0 0)
(-4.322803e-09 0.0073282172 0 -0.00061714137 0 0)
(-4.0464674e-09 0.0052335232 0 -0.00031460082 0 0)
(1.6623249e-09 0.0031385194 0 -0.00011310665 0 0)
(7.7553206e-09 0.0010457755 0 -1.2562189e-05 0 0)
(7.4077893e-09 -0.0010457775 0 -1.2561919e-05 0 0)
(6.0872043e-10 -0.0031385209 0 -0.00011310568 0 0)
(-5.2824272e-09 -0.0052335233 0 -0.00031459948 0 0)
(-5.0596895e-09 -0.0073282153 0 -0.00061714027 0 0)
(-3.5135095e-09 0.0073282181 0 -0.00061714201 0 0)
(-4.0594999e-09 0.0052335221 0 -0.00031460133 0 0)
(1.7799847e-09 0.0031385169 0 -0.00011310625 0 0)
(6.6959862e-09 0.0010457749 0 -1.2561239e-05 0 0)
(6.5442628e-09 -0.0010457772 0 -1.2561137e-05 0 0)
(9.1839633e-10 -0.0031385181 0 -0.00011310548 0 0)
(-5.1290712e-09 -0.0052335222 0 -0.00031460016 0 0)
(-4.1799776e-09 -0.0073282163 0 -0.00061714101 0 0)
(-3.3701189e-09 0.0073282188 0 -0.00061714252 0 0)
(-3.0311189e-09 0.0052335212 0 -0.00031460166 0 0)
(1.2613954e-09 0.0031385157 0 -0.00011310603 0 0)
(6.1001502e-09 0.0010457741 0 -1.2560489e-05 0 0)
(5.8712583e-09 -0.0010457758 0 -1.2560331e-05 0 0)
(5.4335025e-10 -0.003138517 0 -0.00011310538 0 0)
(-3.9350118e-09 -0.0052335213 0 -0.00031460068 0 0)
(-3.9464645e-09 -0.0073282173 0 -0.00061714165 0 0)
(-2.8514802e-09 0.0073282196 0 -0.00061714285 0 0)
(-3.3898688e-09 0.0052335205 0 -0.00031460186 0 0)
(1.4937777e-09 0.0031385138 0 -0.00011310579 0 0)
(5.5054019e-09 0.0010457737 0 -1.2560016e-05 0 0)
(5.3985059e-09 -0.0010457756 0 -1.2559949e-05 0 0)
(9.1622892e-10 -0.0031385148 0 -0.00011310529 0 0)
(-4.1550741e-09 -0.0052335206 0 -0.00031460102 0 0)
(-3.3628616e-09 -0.0073282182 0 -0.00061714207 0 0)
(-2.9361191e-09 0.0073282202 0 -0.00061714312 0 0)
(-2.5860246e-09 0.0052335199 0 -0.00031460199 0 0)
(1.0263982e-09 0.0031385132 0 -0.00011310565 0 0)
(5.2566757e-09 0.001045773 0 -1.255962e-05 0 0)
(5.1081533e-09 -0.0010457744 0 -1.2559536e-05 0 0)
(5.6536921e-10 -0.0031385142 0 -0.00011310525 0 0)
(-3.223962e-09 -0.0052335199 0 -0.00031460129 0 0)
(-3.3751835e-09 -0.007328219 0 -0.00061714243 0 0)
(-2.5283125e-09 0.007328221 0 -0.00061714333 0 0)
(-3.0785555e-09 0.0052335194 0 -0.00031460208 0 0)
(1.309041e-09 0.0031385116 0 -0.00011310548 0 0)
(4.8532121e-09 0.0010457727 0 -1.2559345e-05 0 0)
(4.7906225e-09 -0.0010457743 0 -1.2559314e-05 0 0)
(9.4262958e-10 -0.0031385124 0 -0.00011310519 0 0)
(-3.6098887e-09 -0.0052335194 0 -0.00031460149 0 0)
(-2.9114446e-09 -0.0073282198 0 -0.00061714271 0 0)
(-2.7013393e-09 0.0073282215 0 -0.0006171435 0 0)
(-2.35748e-09 0.0052335189 0 -0.00031460214 0 0)
(8.664182e-10 0.0031385112 0 -0.00011310539 0 0)
(4.752386e-09 0.0010457721 0 -1.25591e-05 0 0)
(4.6615851e-09 -0.0010457733 0 -1.255907e-05 0 0)
(5.8705466e-10 -0.003138512 0 -0.00011310516 0 0)
(-2.7952929e-09 -0.0052335189 0 -0.00031460165 0 0)
(-3.0287928e-09 -0.0073282205 0 -0.00061714296 0 0)
(-2.3318974e-09 0.0073282223 0 -0.00061714366 0 0)
(-2.8962568e-09 0.0052335184 0 -0.00031460219 0 0)
(1.1757995e-09 0.0031385098 0 -0.00011310526 0 0)
(4.4250894e-09 0.0010457718 0 -1.2558905e-05 0 0)
(4.398056e-09 -0.0010457732 0 -1.2558903e-05 0 0)
(9.5322524e-10 -0.0031385105 0 -0.0001131051 0 0)
(-3.2591016e-09 -0.0052335184 0 -0.00031460179 0 0)
(-2.6137872e-09 -0.0073282212 0 -0.00061714318 0 0)
(-2.5372756e-09 0.0073282228 0 -0.00061714379 0 0)
(-2.1992212e-09 0.005233518 0 -0.00031460224 0 0)
(7.4924665e-10 0.0031385094 0 -0.00011310519 0 0)
(4.3872013e-09 0.0010457713 0 -1.2558726e-05 0 0)
(4.3343325e-09 -0.0010457724 0 -1.255873e-05 0 0)
(5.874822e-10 -0.0031385101 0 -0.00011310507 0 0)
(-2.4962836e-09 -0.005233518 0 -0.0003146019 0 0)
(-2.7783878e-09 -0.0073282218 0 -0.00061714338 0 0)
(-2.1788568e-09 0.0073282235 0 -0.00061714393 0 0)
(-2.7500538e-09 0.0052335176 0 -0.00031460228 0 0)
(1.0758702e-09 0.0031385081 0 -0.00011310508 0 0)
(4.0905564e-09 0.001045771 0 -1.2558564e-05 0 0)
(4.0859454e-09 -0.0010457723 0 -1.255858e-05 0 0)
(9.4170347e-10 -0.0031385087 0 -0.00011310501 0 0)
(-2.9990059e-09 -0.0052335175 0 -0.00031460201 0 0)
(-2.3844274e-09 -0.0073282225 0 -0.00061714356 0 0)
(-2.3958586e-09 0.007328224 0 -0.00061714405 0 0)
(-2.0560335e-09 0.0052335172 0 -0.00031460233 0 0)
(6.6127678e-10 0.0031385078 0 -0.00011310503 0 0)
(4.0812094e-09 0.0010457705 0 -1.2558416e-05 0 0)
(4.049337e-09 -0.0010457716 0 -1.2558438e-05 0 0)
(5.6743219e-10 -0.0031385084 0 -0.00011310498 0 0)
(-2.2608664e-09 -0.0052335171 0 -0.0003146021 0 0)
(-2.5734103e-09 -0.0073282231 0 -0.00061714373 0 0)
(-2.0392953e-09 0.0073282246 0 -0.00061714419 0 0)
(-2.6077419e-09 0.0052335169 0 -0.00031460238 0 0)
(1.00007e-09 0.0031385066 0 -0.00011310495 0 0)
(3.7983732e-09 0.0010457703 0 -1.255827e-05 0 0)
(3.8036995e-09 -0.0010457714 0 -1.2558291e-05 0 0)
(9.1263471e-10 -0.0031385071 0 -0.00011310492 0 0)
(-2.7853466e-09 -0.0052335168 0 -0.00031460219 0 0)
(-2.1900326e-09 -0.0073282238 0 -0.00061714389 0 0)
(-2.2611277e-09 0.0073282251 0 -0.00061714429 0 0)
(-1.9112553e-09 0.0052335165 0 -0.00031460243 0 0)
(5.9441687e-10 0.0031385063 0 -0.00011310491 0 0)
(3.8041513e-09 0.0010457698 0 -1.2558138e-05 0 0)
(3.7803541e-09 -0.0010457708 0 -1.2558167e-05 0 0)
(5.3285387e-10 -0.0031385068 0 -0.00011310489 0 0)
(-2.0606977e-09 -0.0052335164 0 -0.00031460227 0 0)
(-2.3942124e-09 -0.0073282243 0 -0.00061714404 0 0)
(-1.9040994e-09 0.0073282257 0 -0.00061714442 0 0)
(-2.4617654e-09 0.0052335162 0 -0.0003146025 0 0)
(9.4178452e-10 0.0031385052 0 -0.00011310484 0 0)
(3.5293213e-09 0.0010457696 0 -1.2558002e-05 0 0)
(3.5352259e-09 -0.0010457706 0 -1.2558021e-05 0 0)
(8.7226506e-10 -0.0031385056 0 -0.00011310483 0 0)
(-2.5991611e-09 -0.005233516 0 -0.00031460234 0 0)
(-2.0173703e-09 -0.0073282249 0 -0.00061714419 0 0)
(-2.1290124e-09 0.0073282261 0 -0.00061714453 0 0)
(-1.7629635e-09 0.0052335159 0 -0.00031460255 0 0)
(5.4244955e-10 0.0031385049 0 -0.00011310481 0 0)
(3.5450171e-09 0.0010457691 0 -1.2557882e-05 0 0)
(3.5206132e-09 -0.0010457701 0 -1.2557909e-05 0 0)
(4.8976781e-10 -0.0031385054 0 -0.0001131048 0 0)
(-1.8830545e-09 -0.0052335157 0 -0.00031460242 0 0)
(-2.2326308e-09 -0.0073282254 0 -0.00061714431 0 0)
(-1.77154e-09 0.0073282267 0 -0.00061714465 0 0)
(-2.3131775e-09 0.0052335156 0 -0.00031460262 0 0)
(8.9552992e-10 0.0031385038 0 -0.00011310476 0 0)
(3.2763485e-09 0.0010457689 0 -1.2557754e-05 0 0)
(3.2770374e-09 -0.0010457699 0 -1.2557765e-05 0 0)
(8.2598416e-10 -0.0031385042 0 -0.00011310474 0 0)
(-2.4313421e-09 -0.0052335154 0 -0.00031460249 0 0)
(-1.8605405e-09 -0.007328226 0 -0.00061714445 0 0)
(-1.9993826e-09 0.0073282271 0 -0.00061714475 0 0)
(-1.6137846e-09 0.0052335153 0 -0.00031460268 0 0)
(5.0034231e-10 0.0031385036 0 -0.00011310473 0 0)
(3.2998205e-09 0.0010457685 0 -1.2557644e-05 0 0)
(3.2698099e-09 -0.0010457695 0 -1.2557663e-05 0 0)
(4.428797e-10 -0.003138504 0 -0.00011310471 0 0)
(-1.7213564e-09 -0.005233515 0 -0.00031460256 0 0)
(-2.0846096e-09 -0.0073282264 0 -0.00061714457 0 0)
(-1.6421067e-09 0.0073282277 0 -0.00061714486 0 0)
(-2.1651973e-09 0.005233515 0 -0.00031460274 0 0)
(8.5692251e-10 0.0031385026 0 -0.00011310469 0 0)
(3.0367855e-09 0.0010457683 0 -1.2557522e-05 0 0)
(3.0295086e-09 -0.0010457692 0 -1.2557523e-05 0 0)
(7.777073e-10 -0.003138503 0 -0.00011310466 0 0)
(-2.2770724e-09 -0.0052335148 0 -0.00031460263 0 0)
(-1.7163137e-09 -0.007328227 0 -0.0006171447 0 0)
(-1.8731249e-09 0.007328228 0 -0.00061714495 0 0)
(-1.4670266e-09 0.0052335147 0 -0.0003146028 0 0)
(4.642613e-10 0.0031385024 0 -0.00011310467 0 0)
(3.0670206e-09 0.0010457679 0 -1.255742e-05 0 0)
(3.0292148e-09 -0.0010457689 0 -1.255743e-05 0 0)
(3.9543512e-10 -0.0031385028 0 -0.00011310464 0 0)
(-1.5719682e-09 -0.0052335144 0 -0.00031460269 0 0)
(-1.9476629e-09 -0.0073282273 0 -0.0006171448 0 0)
(-1.5167393e-09 0.0073282286 0 -0.00061714507 0 0)
(-2.0209016e-09 0.0052335144 0 -0.00031460287 0 0)
(8.2272923e-10 0.0031385015 0 -0.00011310463 0 0)
(2.8095073e-09 0.0010457677 0 -1.2557305e-05 0 0)
(2.7937215e-09 -0.0010457686 0 -1.2557295e-05 0 0)
(7.3003197e-10 -0.0031385018 0 -0.00011310459 0 0)
(-2.1335431e-09 -0.0052335142 0 -0.00031460276 0 0)
(-1.5825458e-09 -0.0073282279 0 -0.00061714492 0 0)
(-1.7511804e-09 0.0073282289 0 -0.00061714515 0 0)
(-1.3253647e-09 0.0052335141 0 -0.00031460293 0 0)
(4.3150686e-10 0.0031385013 0 -0.00011310462 0 0)
(2.8459294e-09 0.0010457674 0 -1.2557211e-05 0 0)
(2.800064e-09 -0.0010457683 0 -1.2557211e-05 0 0)
(3.495114e-10 -0.0031385016 0 -0.00011310456 0 0)
(-1.4326195e-09 -0.0052335139 0 -0.00031460282 0 0)
(-1.8200121e-09 -0.0073282282 0 -0.00061714501 0 0)
(-1.396269e-09 0.0073282294 0 -0.00061714526 0 0)
(-1.8824895e-09 0.0052335139 0 -0.000314603 0 0)
(7.9076429e-10 0.0031385004 0 -0.00011310458 0 0)
(2.5939592e-09 0.0010457672 0 -1.2557102e-05 0 0)
(2.5705164e-09 -0.001045768 0 -1.2557082e-05 0 0)
(6.8454083e-10 -0.0031385007 0 -0.00011310452 0 0)
(-1.9989557e-09 -0.0052335137 0 -0.00031460289 0 0)
(-1.4576521e-09 -0.0073282287 0 -0.00061714512 0 0)
(-1.6342732e-09 0.0073282296 0 -0.00061714534 0 0)
(-1.1905051e-09 0.0052335136 0 -0.00031460306 0 0)
(4.0034369e-10 0.0031385002 0 -0.00011310457 0 0)
(2.6361867e-09 0.0010457669 0 -1.2557015e-05 0 0)
(2.5831648e-09 -0.0010457678 0 -1.2557006e-05 0 0)
(3.0629557e-10 -0.0031385005 0 -0.0001131045 0 0)
(-1.3018195e-09 -0.0052335134 0 -0.00031460294 0 0)
(-1.7003375e-09 -0.007328229 0 -0.00061714521 0 0)
(-1.2812849e-09 0.0073282301 0 -0.00061714544 0 0)
(-1.7512951e-09 0.0052335134 0 -0.00031460312 0 0)
(7.5970171e-10 0.0031384994 0 -0.00011310453 0 0)
(2.3898262e-09 0.0010457667 0 -1.2556912e-05 0 0)
(2.3603166e-09 -0.0010457675 0 -1.2556884e-05 0 0)
(6.420685e-10 -0.0031384997 0 -0.00011310446 0 0)
(-1.8721463e-09 -0.0052335132 0 -0.00031460301 0 0)
(-1.3404561e-09 -0.0073282295 0 -0.00061714532 0 0)
(-1.522882e-09 0.0073282304 0 -0.00061714551 0 0)
(-1.0634807e-09 0.0052335131 0 -0.00031460318 0 0)
(3.6978877e-10 0.0031384992 0 -0.00011310453 0 0)
(2.4375808e-09 0.0010457665 0 -1.2556831e-05 0 0)
(2.3788942e-09 -0.0010457673 0 -1.2556815e-05 0 0)
(2.663408e-10 -0.0031384996 0 -0.00011310445 0 0)
(-1.1786115e-09 -0.0052335129 0 -0.00031460306 0 0)
(-1.587694e-09 -0.0073282297 0 -0.0006171454 0 0)
(-1.1721483e-09 0.0073282308 0 -0.00061714561 0 0)
(-1.6281706e-09 0.0052335129 0 -0.00031460324 0 0)
(7.2886194e-10 0.0031384985 0 -0.0001131045 0 0)
(2.1969065e-09 0.0010457663 0 -1.2556734e-05 0 0)
(2.1631886e-09 -0.001045767 0 -1.25567e-05 0 0)
(6.029367e-10 -0.0031384988 0 -0.00011310441 0 0)
(-1.7523971e-09 -0.0052335127 0 -0.00031460312 0 0)
(-1.23013e-09 -0.0073282302 0 -0.00061714549 0 0)
(-1.4172852e-09 0.007328231 0 -0.00061714568 0 0)
(-9.4488521e-10 0.0052335127 0 -0.0003146033 0 0)
(3.3939692e-10 0.0031384984 0 -0.00011310449 0 0)
(2.2499665e-09 0.0010457661 0 -1.2556659e-05 0 0)
(2.1872946e-09 -0.0010457669 0 -1.2556638e-05 0 0)
(2.2978229e-10 -0.0031384987 0 -0.0001131044 0 0)
(-1.0624133e-09 -0.0052335125 0 -0.00031460318 0 0)
(-1.4814275e-09 -0.0073282304 0 -0.00061714557 0 0)
(-1.0690309e-09 0.0073282314 0 -0.00061714577 0 0)
(-1.5134171e-09 0.0052335125 0 -0.00031460336 0 0)
(6.9800727e-10 0.0031384977 0 -0.00011310446 0 0)
(2.0150445e-09 0.0010457659 0 -1.2556568e-05 0 0)
(1.9789443e-09 -0.0010457666 0 -1.255653e-05 0 0)
(5.6714215e-10 -0.0031384979 0 -0.00011310437 0 0)
(-1.6392941e-09 -0.0052335123 0 -0.00031460323 0 0)
(-1.1261086e-09 -0.0073282309 0 -0.00061714566 0 0)
(-1.3176059e-09 0.0073282316 0 -0.00061714583 0 0)
(-8.3478702e-10 0.0052335123 0 -0.0003146034 0 0)
(3.0907163e-10 0.0031384975 0 -0.00011310445 0 0)
(2.0732166e-09 0.0010457657 0 -1.2556498e-05 0 0)
(2.008175e-09 -0.0010457664 0 -1.2556473e-05 0 0)
(1.9650339e-10 -0.0031384978 0 -0.00011310436 0 0)
(-9.5288611e-10 -0.0052335121 0 -0.00031460329 0 0)
(-1.3810986e-09 -0.0073282311 0 -0.00061714573 0 0)
(-9.7196051e-10 0.007328232 0 -0.00061714592 0 0)
(-1.4069597e-09 0.0052335121 0 -0.00031460346 0 0)
(6.6717235e-10 0.0031384969 0 -0.00011310443 0 0)
(1.8440856e-09 0.0010457655 0 -1.2556413e-05 0 0)
(1.8072246e-09 -0.0010457662 0 -1.2556372e-05 0 0)
(5.3449617e-10 -0.0031384971 0 -0.00011310434 0 0)
(-1.532607e-09 -0.0052335119 0 -0.00031460334 0 0)
(-1.0280133e-09 -0.0073282315 0 -0.00061714581 0 0)
(-1.2238521e-09 0.0073282322 0 -0.00061714597 0 0)
(-7.329776e-10 0.0052335119 0 -0.00031460351 0 0)
(2.789193e-10 0.0031384968 0 -0.00011310442 0 0)
(1.9071838e-09 0.0010457654 0 -1.2556348e-05 0 0)
(1.8411867e-09 -0.0010457661 0 -1.2556321e-05 0 0)
(1.6625459e-10 -0.0031384971 0 -0.00011310433 0 0)
(-8.4983021e-10 -0.0052335117 0 -0.00031460339 0 0)
(-1.286415e-09 -0.0073282317 0 -0.00061714588 0 0)
(-8.8087101e-10 0.0073282325 0 -0.00061714606 0 0)
(-1.3085333e-09 0.0052335117 0 -0.00031460356 0 0)
(6.3653864e-10 0.0031384962 0 -0.0001131044 0 0)
(1.683846e-09 0.0010457652 0 -1.2556268e-05 0 0)
(1.647565e-09 -0.0010457658 0 -1.2556226e-05 0 0)
(5.0472239e-10 -0.0031384964 0 -0.0001131043 0 0)
(-1.4322e-09 -0.0052335115 0 -0.00031460344 0 0)
(-9.3558561e-10 -0.007328232 0 -0.00061714596 0 0)
(-1.1359423e-09 0.0073282326 0 -0.00061714611 0 0)
(-6.3910397e-10 0.0052335115 0 -0.0003146036 0 0)
(2.4914483e-10 0.0031384961 0 -0.00011310439 0 0)
(1.7516796e-09 0.0010457651 0 -1.2556209e-05 0 0)
(1.6858811e-09 -0.0010457657 0 -1.255618e-05 0 0)
(1.3873383e-10 -0.0031384964 0 -0.0001131043 0 0)
(-7.5310826e-10 -0.0052335113 0 -0.00031460349 0 0)
(-1.1971743e-09 -0.0073282322 0 -0.00061714602 0 0)
(-7.9563286e-10 0.007328233 0 -0.00061714618 0 0)