/*--------------------------------*- C++ -*----------------------------------*\
| =========                 |                                                 |
| \\      /  F ield         | OpenFOAM: The Open Source CFD Toolbox           |
|  \\    /   O peration     | Version:  5.x                                   |
|   \\  /    A nd           | Web:      www.OpenFOAM.org                      |
|    \\/     M anipulation  |                                                 |
\*---------------------------------------------------------------------------*/
FoamFile
{
    version     2.0;
    format      ascii;
    class       volSymmTensorField;
    location    "7";
    object      sigma_0;
}
// * * * * * * * * * * * * * * * * * * * * * * * * * * * * * * * * * * * * * //

dimensions      [0 2 -2 0 0 0 0];

internalField   nonuniform List<symmTensor> 
1920
(
(0.0027575899 0.014859422 0 -0.0092045894 0 0)
(-0.000461765 0.0058223184 0 0.0016507106 0 0)
(-0.001831612 0.003625455 0 0.0014096948 0 0)
(-0.0014049192 0.0011422092 0 0.0014001718 0 0)
(-0.0014048858 -0.0011422192 0 0.0014001383 0 0)
(-0.0018316201 -0.0036254189 0 0.0014097035 0 0)
(-0.00046176969 -0.0058223106 0 0.0016507158 0 0)
(0.0027575886 -0.014859422 0 -0.0092045856 0 0)
(0.0050153353 0.010297143 0 -0.0050783605 0 0)
(0.00054679705 0.0020570938 0 0.00055751905 0 0)
(-0.003102671 0.00076055938 0 0.0026271306 0 0)
(-0.0030902766 0.00040848262 0 0.0028278432 0 0)
(-0.0030902571 -0.00040848576 0 0.0028278207 0 0)
(-0.0031026816 -0.00076053518 0 0.0026271422 0 0)
(0.00054680016 -0.0020570907 0 0.00055751138 0 0)
(0.0050153353 -0.010297145 0 -0.0050783608 0 0)
(0.0045241806 0.0088284845 0 -0.0059529917 0 0)
(0.0011434211 0.0012046878 0 -0.00062851332 0 0)
(-0.0026118161 0.00028473751 0 0.0023281735 0 0)
(-0.0032964656 0.00010083997 0 0.0031348022 0 0)
(-0.0032964913 -0.00010083487 0 0.0031348313 0 0)
(-0.0026118 -0.00028475444 0 0.0023281525 0 0)
(0.0011434275 -0.0012047004 0 -0.00062851765 0 0)
(0.0045241828 -0.0088284856 0 -0.0059529963 0 0)
(0.0035137365 0.0082007679 0 -0.0049500669 0 0)
(0.0012940442 0.0016914768 0 -0.0011019184 0 0)
(-0.0019404683 0.00033532441 0 0.0018143035 0 0)
(-0.0030137929 2.9019687e-05 0 0.0029603606 0 0)
(-0.0030137383 -2.9032141e-05 0 0.0029603065 0 0)
(-0.0019405723 -0.00033521535 0 0.0018144065 0 0)
(0.0012940485 -0.0016914653 0 -0.0011019231 0 0)
(0.0035137421 -0.0082007682 0 -0.0049500724 0 0)
(0.0026542394 0.0078622112 0 -0.0037401435 0 0)
(0.0011891767 0.0023372047 0 -0.0011555768 0 0)
(-0.0013752143 0.00072390569 0 0.0012907606 0 0)
(-0.0025628452 0.00011854582 0 0.0025291251 0 0)
(-0.0025629834 -0.00011854543 0 0.0025292655 0 0)
(-0.0013756049 -0.00072362283 0 0.0012911477 0 0)
(0.0011891711 -0.0023371999 0 -0.0011555706 0 0)
(0.0026542506 -0.007862209 0 -0.0037401556 0 0)
(0.0020371322 0.0076363554 0 -0.002900553 0 0)
(0.0010056122 0.0030062805 0 -0.0010698898 0 0)
(-0.0010163497 0.0010908368 0 0.00094555288 0 0)
(-0.0018696337 0.0002751209 0 0.0018486042 0 0)
(-0.0018695774 -0.00027514955 0 0.0018485445 0 0)
(-0.0010158223 -0.0010913071 0 0.0009450287 0 0)
(0.0010056469 -0.0030062736 0 -0.0010699251 0 0)
(0.0020371361 -0.0076363485 0 -0.0029005558 0 0)
(0.0013912627 0.0073999915 0 -0.0021382262 0 0)
(0.00077147368 0.0036191655 0 -0.00091150289 0 0)
(-0.00065369845 0.0015510594 0 0.00058864201 0 0)
(-0.0014319663 0.00041541618 0 0.0014213847 0 0)
(-0.0014319314 -0.00041543309 0 0.0014213505 0 0)
(-0.0006536161 -0.0015511152 0 0.00058855864 0 0)
(0.0007714944 -0.0036191561 0 -0.00091152254 0 0)
(0.0013912636 -0.0073999777 0 -0.0021382265 0 0)
(0.00097221126 0.0072500155 0 -0.0016601035 0 0)
(0.00060337095 0.0039682589 0 -0.00079122957 0 0)
(-0.00041469616 0.0019340552 0 0.0003474801 0 0)
(-0.0010639683 0.00054448783 0 0.001059851 0 0)
(-0.0010640385 -0.00054446933 0 0.0010599202 0 0)
(-0.00041470371 -0.0019340188 0 0.00034748776 0 0)
(0.00060337293 -0.0039682781 0 -0.00079123343 0 0)
(0.00097220921 -0.0072500019 0 -0.0016601 0 0)
(0.00066874433 0.0071476684 0 -0.0013203128 0 0)
(0.00043426731 0.0042920991 0 -0.00066007159 0 0)
(-0.00027315181 0.0022081079 0 0.0001989112 0 0)
(-0.00078437469 0.00064925556 0 0.00078180503 0 0)
(-0.00078424261 -0.00064931004 0 0.00078167532 0 0)
(-0.000273107 -0.0022081589 0 0.00019886661 0 0)
(0.00043429884 -0.0042920617 0 -0.00066010247 0 0)
(0.00066876141 -0.0071476538 0 -0.0013203291 0 0)
(0.00044992065 0.0070761754 0 -0.0010791577 0 0)
(0.00031453921 0.0044975412 0 -0.00056637321 0 0)
(-0.00017406057 0.002429501 0 9.1411719e-05 0 0)
(-0.00053839635 0.00074694596 0 0.00053507047 0 0)
(-0.00053855012 -0.00074689086 0 0.00053522324 0 0)
(-0.00017407789 -0.0024294418 0 9.1430078e-05 0 0)
(0.00031453526 -0.0044975553 0 -0.00056636979 0 0)
(0.00044991589 -0.0070761547 0 -0.0010791508 0 0)
(0.00029568751 0.0070276196 0 -0.00091163204 0 0)
(0.00022309971 0.0046447454 0 -0.00049322865 0 0)
(-0.00010855724 0.0025954452 0 1.8503827e-05 0 0)
(-0.00036734398 0.00081833201 0 0.00036227142 0 0)
(-0.00036720567 -0.00081840054 0 0.00036213251 0 0)
(-0.00010852405 -0.0025955034 0 1.8469479e-05 0 0)
(0.00022312377 -0.0046447066 0 -0.00049325131 0 0)
(0.00029570428 -0.0070276011 0 -0.0009116469 0 0)
(0.00019066199 0.0069955849 0 -0.00079883634 0 0)
(0.00015365652 0.0047503891 0 -0.00043628372 0 0)
(-6.6351616e-05 0.0027154741 0 -2.9556298e-05 0 0)
(-0.00024517048 0.00087159627 0 0.00023829756 0 0)
(-0.00024518423 -0.00087159535 0 0.00023831165 0 0)
(-6.6368258e-05 -0.0027154234 0 -2.9538765e-05 0 0)
(0.00015364697 -0.0047503973 0 -0.00043627436 0 0)
(0.00019065553 -0.0069955605 0 -0.00079882746 0 0)
(0.00012097857 0.0069749028 0 -0.00072465398 0 0)
(0.00010335129 0.0048229355 0 -0.00039424753 0 0)
(-3.9715611e-05 0.0027999333 0 -6.057836e-05 0 0)
(-0.00016124557 0.00090955546 0 0.00015282286 0 0)
(-0.00016139999 -0.00090950831 0 0.00015297681 0 0)
(-3.9701362e-05 -0.0027999795 0 -6.0593687e-05 0 0)
(0.00010336506 -0.004822903 0 -0.00039425984 0 0)
(0.00012098966 -0.0069748818 0 -0.00072466234 0 0)
(7.5410698e-05 0.006961733 0 -0.0006765109 0 0)
(6.8161906e-05 0.0048712156 0 -0.00036441412 0 0)
(-2.3170732e-05 0.0028581601 0 -8.0269664e-05 0 0)
(-0.00010431869 0.00093607132 0 9.4702942e-05 0 0)
(-0.00010404578 -0.00093619617 0 9.4429415e-05 0 0)
(-2.3185548e-05 -0.0028581281 0 -8.0254418e-05 0 0)
(6.8148954e-05 -0.0048712188 0 -0.00036440072 0 0)
(7.5405136e-05 -0.0069617089 0 -0.00067650269 0 0)
(4.6068399e-05 0.0069534846 0 -0.00064572842 0 0)
(4.4116334e-05 0.0049027494 0 -0.00034377364 0 0)
(-1.3120429e-05 0.0028974545 0 -9.2498209e-05 0 0)
(-6.6029485e-05 0.00095439863 0 5.5548821e-05 0 0)
(-6.6385017e-05 -0.00095426417 0 5.5905005e-05 0 0)
(-1.3119515e-05 -0.0028974867 0 -9.2499979e-05 0 0)
(4.4120188e-05 -0.0049027271 0 -0.00034377626 0 0)
(4.6073402e-05 -0.0069534636 0 -0.00064573039 0 0)
(2.7509867e-05 0.0069484298 0 -0.00062639177 0 0)
(2.8018471e-05 0.0049229594 0 -0.00032980393 0 0)
(-7.1105414e-06 0.0029236064 0 -9.9971146e-05 0 0)
(-4.1413828e-05 0.00096651633 0 3.0333381e-05 0 0)
(-4.0868762e-05 -0.00096677508 0 2.9785759e-05 0 0)
(-7.1230052e-06 -0.0029235925 0 -9.995873e-05 0 0)
(2.8005871e-05 -0.004922959 0 -0.00032979056 0 0)
(2.7504754e-05 -0.0069484081 0 -0.00062638398 0 0)
(1.5962605e-05 0.0069454025 0 -0.00061444653 0 0)
(1.7417599e-05 0.004935731 0 -0.00032050882 0 0)
(-3.6349797e-06 0.0029406206 0 -0.00010440267 0 0)
(-2.5483283e-05 0.00097454109 0 1.4001593e-05 0 0)
(-2.5859946e-05 -0.00097439053 0 1.4379601e-05 0 0)
(-3.6405211e-06 -0.0029406412 0 -0.00010439783 0 0)
(1.7414881e-05 -0.0049357182 0 -0.00032050519 0 0)
(1.5962986e-05 -0.0069453833 0 -0.000614444 0 0)
(8.9444462e-06 0.00694365 0 -0.00060724182 0 0)
(1.0587806e-05 0.0049436128 0 -0.0003144634 0 0)
(-1.6723183e-06 0.0029515632 0 -0.00010697538 0 0)
(-1.5319477e-05 0.0009797744 0 3.5752398e-06 0 0)
(-1.5178119e-05 -0.00097985946 0 3.4328067e-06 0 0)
(-1.6819305e-06 -0.0029515623 0 -0.00010696614 0 0)
(1.0577609e-05 -0.0049436104 0 -0.00031445245 0 0)
(8.9399545e-06 -0.0069436314 0 -0.00060723482 0 0)
(4.7577054e-06 0.0069426739 0 -0.00060298257 0 0)
(6.2476734e-06 0.0049484104 0 -0.000310585 0 0)
(-6.2439476e-07 0.0029584129 0 -0.00010840157 0 0)
(-8.7796113e-06 0.0009832153 0 -3.1323905e-06 0 0)
(-8.9609263e-06 -0.00098314753 0 -2.9506138e-06 0 0)
(-6.3152173e-07 -0.0029584252 0 -0.00010839504 0 0)
(6.2420016e-06 -0.0049484041 0 -0.0003105787 0 0)
(4.7554989e-06 -0.0069426571 0 -0.00060297781 0 0)
(2.3935851e-06 0.0069421737 0 -0.00060060371 0 0)
(3.5662616e-06 0.0049512335 0 -0.00030816653 0 0)
(-9.4295945e-08 0.0029626508 0 -0.00010916103 0 0)
(-4.899603e-06 0.00098531444 0 -7.1160229e-06 0 0)
(-4.6194406e-06 -0.0009854704 0 -7.398185e-06 0 0)
(-1.0118343e-07 -0.0029626569 0 -0.00010915472 0 0)
(3.5590737e-06 -0.0049512303 0 -0.00030815872 0 0)
(2.3904529e-06 -0.006942158 0 -0.00060059836 0 0)
(1.0203219e-06 0.0069419276 0 -0.00059924143 0 0)
(1.9314111e-06 0.0049528653 0 -0.00030667783 0 0)
(1.414815e-07 0.0029651828 0 -0.00010953031 0 0)
(-2.3042633e-06 0.00098674557 0 -9.7754848e-06 0 0)
(-2.6698885e-06 -0.00098657658 0 -9.4076791e-06 0 0)
(1.3518959e-07 -0.00296519 0 -0.00010952456 0 0)
(1.9251466e-06 -0.0049528624 0 -0.00030667114 0 0)
(1.0170995e-06 -0.0069419131 0 -0.00059923605 0 0)
(3.0648432e-07 0.0069418353 0 -0.00059854818 0 0)
(9.7662362e-07 0.0049537564 0 -0.0003057991 0 0)
(2.2330874e-07 0.0029666675 0 -0.00010968774 0 0)
(-1.2363956e-06 0.00098737823 0 -1.0877525e-05 0 0)
(-9.8250471e-07 -0.00098752819 0 -1.113381e-05 0 0)
(2.1820779e-07 -0.0029666756 0 -0.00010968326 0 0)
(9.7185228e-07 -0.0049537529 0 -0.00030579386 0 0)
(3.040393e-07 -0.0069418219 0 -0.00059854383 0 0)
(-3.9141581e-08 0.0069418256 0 -0.00059822476 0 0)
(4.2777676e-07 0.0049542235 0 -0.00030528866 0 0)
(2.2869354e-07 0.0029674958 0 -0.00010973272 0 0)
(-3.317945e-07 0.00098791308 0 -1.1803704e-05 0 0)
(-3.7997656e-07 -0.0009879022 0 -1.1755436e-05 0 0)
(2.2380321e-07 -0.0029675005 0 -0.00010972835 0 0)
(4.2205517e-07 -0.0049542217 0 -0.00030528264 0 0)
(-4.2129033e-08 -0.0069418131 0 -0.00059822 0 0)
(-1.8960436e-07 0.0069418535 0 -0.00059809414 0 0)
(1.3542791e-07 0.0049544415 0 -0.00030501168 0 0)
(2.0056667e-07 0.0029679376 0 -0.00010972437 0 0)
(-2.9488719e-09 0.00098813125 0 -1.2142699e-05 0 0)
(-5.4704638e-08 -0.00098811492 0 -1.2090959e-05 0 0)
(1.9633815e-07 -0.0029679451 0 -0.00010972069 0 0)
(1.3203227e-07 -0.0049544383 0 -0.00030500794 0 0)
(-1.9201727e-07 -0.0069418418 0 -0.00059809011 0 0)
(-2.2759494e-07 0.0069418917 0 -0.00059807267 0 0)
(-1.0338976e-08 0.00495453 0 -0.0003048708 0 0)
(1.6319019e-07 0.0029681517 0 -0.00010969446 0 0)
(1.3716608e-07 0.000988235 0 -1.2287722e-05 0 0)
(1.2600574e-07 -0.00098824057 0 -1.2276805e-05 0 0)
(1.5946344e-07 -0.0029681559 0 -0.00010969118 0 0)
(-1.5070219e-08 -0.0049545282 0 -0.00030486581 0 0)
(-2.3008187e-07 -0.0069418807 0 -0.00059806873 0 0)
(-2.1481462e-07 0.0069419324 0 -0.00059809863 0 0)
(-8.4131168e-08 0.0049545544 0 -0.0003047956 0 0)
(1.283454e-07 0.0029682387 0 -0.00010966154 0 0)
(1.8469114e-07 0.00098828332 0 -1.2337201e-05 0 0)
(1.6936815e-07 -0.00098828219 0 -1.2322036e-05 0 0)
(1.2435873e-07 -0.0029682443 0 -0.00010965798 0 0)
(-8.7633098e-08 -0.0049545522 0 -0.00030479184 0 0)
(-2.1726915e-07 -0.0069419219 0 -0.00059809478 0 0)
(-1.83284e-07 0.0069419645 0 -0.0005981398 0 0)
(-9.9008548e-08 0.0049545398 0 -0.00030477831 0 0)
(9.4506786e-08 0.0029682658 0 -0.00010962626 0 0)
(1.8557202e-07 0.00098829548 0 -1.2338574e-05 0 0)
(1.8690977e-07 -0.00098830617 0 -1.2340193e-05 0 0)
(9.0807349e-08 -0.0029682701 0 -0.00010962296 0 0)
(-1.0349456e-07 -0.0049545375 0 -0.00030477347 0 0)
(-1.851437e-07 -0.0069419551 0 -0.00059813677 0 0)
(-1.448838e-07 0.0069419936 0 -0.00059818508 0 0)
(-9.7343372e-08 0.0049545104 0 -0.00030477744 0 0)
(6.8073133e-08 0.0029682521 0 -0.0001095977 0 0)
(1.6892806e-07 0.0009883004 0 -1.2321745e-05 0 0)
(1.6897489e-07 -0.00098830785 0 -1.2322057e-05 0 0)
(6.452959e-08 -0.0029682567 0 -0.00010959447 0 0)
(-1.0086386e-07 -0.0049545086 0 -0.00030477367 0 0)
(-1.4668129e-07 -0.006941985 0 -0.00059818215 0 0)
(-1.1244255e-07 0.0069420141 0 -0.0005982227 0 0)
(-8.1649653e-08 0.0049544834 0 -0.00030478951 0 0)
(4.7938941e-08 0.0029682268 0 -0.00010957516 0 0)
(1.4593784e-07 0.00098829136 0 -1.2298239e-05 0 0)
(1.4372406e-07 -0.00098830019 0 -1.2296201e-05 0 0)
(4.4454232e-08 -0.0029682305 0 -0.00010957198 0 0)
(-8.5563602e-08 -0.0049544823 0 -0.00030478532 0 0)
(-1.1441062e-07 -0.0069420056 0 -0.00059821971 0 0)
(-8.5444352e-08 0.0069420308 0 -0.00059825319 0 0)
(-6.8307243e-08 0.0049544596 0 -0.00030480024 0 0)
(3.2613215e-08 0.0029681965 0 -0.00010955762 0 0)
(1.1370261e-07 0.00098828121 0 -1.2265329e-05 0 0)
(1.1254244e-07 -0.00098828824 0 -1.2264381e-05 0 0)
(2.972872e-08 -0.0029682011 0 -0.00010955501 0 0)
(-7.1638575e-08 -0.0049544579 0 -0.00030479672 0 0)
(-8.7160057e-08 -0.0069420234 0 -0.00059825052 0 0)
(-6.2309512e-08 0.0069420433 0 -0.00059827893 0 0)
(-5.2834955e-08 0.0049544386 0 -0.00030481348 0 0)
(2.3082578e-08 0.0029681689 0 -0.00010954632 0 0)
(9.3666619e-08 0.00098827227 0 -1.2244762e-05 0 0)
(9.0344268e-08 -0.00098827811 0 -1.2241581e-05 0 0)
(1.9785533e-08 -0.0029681719 0 -0.00010954329 0 0)
(-5.6430738e-08 -0.0049544373 0 -0.00030480964 0 0)
(-6.4074485e-08 -0.0069420361 0 -0.0005982763 0 0)
(-4.630129e-08 0.0069420531 0 -0.00059829657 0 0)
(-4.1953548e-08 0.0049544224 0 -0.00030482279 0 0)
(1.6506705e-08 0.0029681486 0 -0.00010953814 0 0)
(6.7784343e-08 0.00098826022 0 -1.2218321e-05 0 0)
(6.6184917e-08 -0.00098826603 0 -1.2216889e-05 0 0)
(1.3298151e-08 -0.0029681519 0 -0.00010953515 0 0)
(-4.5133268e-08 -0.0049544213 0 -0.00030481945 0 0)
(-4.7912784e-08 -0.0069420469 0 -0.00059829415 0 0)
(-3.3285387e-08 0.0069420598 0 -0.0005983109 0 0)
(-3.1239347e-08 0.0049544092 0 -0.00030483228 0 0)
(1.2926569e-08 0.0029681307 0 -0.00010953328 0 0)
(5.3019967e-08 0.00098825353 0 -1.2203202e-05 0 0)
(5.1616974e-08 -0.00098825861 0 -1.2201934e-05 0 0)
(1.0002767e-08 -0.0029681334 0 -0.00010953056 0 0)
(-3.4457007e-08 -0.0049544081 0 -0.00030482884 0 0)
(-3.4913759e-08 -0.0069420538 0 -0.00059830854 0 0)
(-2.4579941e-08 0.0069420655 0 -0.00059832027 0 0)
(-2.4600913e-08 0.0049543997 0 -0.00030483823 0 0)
(9.0788362e-09 0.0029681171 0 -0.0001095286 0 0)
(3.8158839e-08 0.00098824536 0 -1.2188019e-05 0 0)
(3.6746886e-08 -0.00098824966 0 -1.2186726e-05 0 0)
(6.1964975e-09 -0.0029681198 0 -0.00010952589 0 0)
(-2.7488943e-08 -0.004954399 0 -0.00030483518 0 0)
(-2.6060396e-08 -0.0069420603 0 -0.00059831812 0 0)
(-1.8268443e-08 0.0069420693 0 -0.00059832733 0 0)
(-1.8362793e-08 0.0049543921 0 -0.00030484372 0 0)
(7.0194883e-09 0.0029681055 0 -0.00010952587 0 0)
(3.0274303e-08 0.00098824191 0 -1.2179945e-05 0 0)
(2.9585668e-08 -0.00098824626 0 -1.2179377e-05 0 0)
(4.5306573e-09 -0.0029681079 0 -0.00010952352 0 0)
(-2.1161075e-08 -0.0049543914 0 -0.00030484073 0 0)
(-1.9743251e-08 -0.0069420644 0 -0.00059832525 0 0)
(-1.3671927e-08 0.0069420726 0 -0.00059833215 0 0)
(-1.4666719e-08 0.0049543867 0 -0.00030484718 0 0)
(5.3728162e-09 0.0029680972 0 -0.00010952373 0 0)
(2.331339e-08 0.00098823734 0 -1.2172832e-05 0 0)
(2.2136775e-08 -0.00098824064 0 -1.2171741e-05 0 0)
(2.9690869e-09 -0.0029680996 0 -0.00010952146 0 0)
(-1.7205e-08 -0.0049543862 0 -0.00030484449 0 0)
(-1.5016957e-08 -0.0069420685 0 -0.00059833025 0 0)
(-1.0990703e-08 0.0069420751 0 -0.00059833535 0 0)
(-1.1455014e-08 0.0049543825 0 -0.00030484989 0 0)
(4.2608208e-09 0.0029680901 0 -0.00010952227 0 0)
(1.931103e-08 0.00098823535 0 -1.2168726e-05 0 0)
(1.8770278e-08 -0.00098823916 0 -1.2168291e-05 0 0)
(2.1921366e-09 -0.0029680923 0 -0.00010952032 0 0)
(-1.381692e-08 -0.004954382 0 -0.00030484737 0 0)
(-1.2293385e-08 -0.0069420712 0 -0.00059833355 0 0)
(-8.6438153e-09 0.0069420773 0 -0.00059833773 0 0)
(-9.6237115e-09 0.0049543793 0 -0.00030485167 0 0)
(3.6115602e-09 0.0029680848 0 -0.00010952131 0 0)
(1.6126048e-08 0.00098823283 0 -1.2165475e-05 0 0)
(1.539588e-08 -0.00098823597 0 -1.2164816e-05 0 0)
(1.6752234e-09 -0.002968087 0 -0.00010951949 0 0)
(-1.1749949e-08 -0.0049543791 0 -0.00030484942 0 0)
(-9.8109779e-09 -0.006942074 0 -0.0005983361 0 0)
(-7.6323827e-09 0.0069420791 0 -0.00059833916 0 0)
(-8.0646794e-09 0.004954377 0 -0.00030485288 0 0)
(3.0362036e-09 0.0029680802 0 -0.00010952054 0 0)
(1.4185874e-08 0.00098823142 0 -1.2163475e-05 0 0)
(1.377946e-08 -0.00098823495 0 -1.2163162e-05 0 0)
(1.3838815e-09 -0.0029680821 0 -0.00010951898 0 0)
(-9.9816614e-09 -0.0049543767 0 -0.00030485083 0 0)
(-8.7345983e-09 -0.0069420761 0 -0.00059833765 0 0)
(-6.4400966e-09 0.0069420808 0 -0.0005983403 0 0)
(-7.2853236e-09 0.0049543751 0 -0.00030485369 0 0)
(2.7759582e-09 0.0029680769 0 -0.00010952007 0 0)
(1.2634942e-08 0.00098822974 0 -1.2161895e-05 0 0)
(1.213753e-08 -0.00098823251 0 -1.2161458e-05 0 0)
(1.2784044e-09 -0.0029680788 0 -0.00010951868 0 0)
(-8.9850349e-09 -0.004954375 0 -0.00030485188 0 0)
(-7.4059155e-09 -0.0069420781 0 -0.00059833895 0 0)
(-6.1111893e-09 0.0069420824 0 -0.000598341 0 0)
(-6.5065053e-09 0.0049543736 0 -0.00030485419 0 0)
(2.4566052e-09 0.0029680734 0 -0.00010951963 0 0)
(1.167132e-08 0.00098822867 0 -1.2160895e-05 0 0)
(1.1335512e-08 -0.00098823172 0 -1.2160639e-05 0 0)
(1.2017655e-09 -0.002968075 0 -0.00010951846 0 0)
(-7.9984287e-09 -0.0049543735 0 -0.00030485259 0 0)
(-7.0046463e-09 -0.0069420799 0 -0.00059833977 0 0)
(-5.4446634e-09 0.0069420837 0 -0.00059834158 0 0)
(-6.2338302e-09 0.0049543724 0 -0.00030485454 0 0)
(2.3230499e-09 0.0029680714 0 -0.00010951936 0 0)
(1.0859353e-08 0.00098822735 0 -1.2160069e-05 0 0)
(1.0503009e-08 -0.00098822971 0 -1.2159765e-05 0 0)
(1.2193311e-09 -0.0029680729 0 -0.00010951835 0 0)
(-7.5363677e-09 -0.0049543723 0 -0.00030485315 0 0)
(-6.2128477e-09 -0.0069420816 0 -0.0005983405 0 0)
(-5.390444e-09 0.0069420852 0 -0.00059834198 0 0)
(-5.7868484e-09 0.0049543713 0 -0.00030485475 0 0)
(2.1123087e-09 0.0029680685 0 -0.00010951906 0 0)
(1.0325478e-08 0.00098822647 0 -1.215951e-05 0 0)
(1.006005e-08 -0.00098822903 0 -1.2159314e-05 0 0)
(1.2085209e-09 -0.0029680698 0 -0.00010951823 0 0)
(-6.9002618e-09 -0.0049543712 0 -0.00030485355 0 0)
(-6.0882855e-09 -0.0069420833 0 -0.00059834101 0 0)
(-4.9471613e-09 0.0069420864 0 -0.00059834232 0 0)
(-5.7288929e-09 0.0049543703 0 -0.0003048549 0 0)
(2.02412e-09 0.0029680669 0 -0.00010951887 0 0)
(9.8452253e-09 0.00098822532 0 -1.2159023e-05 0 0)
(9.5980922e-09 -0.00098822731 0 -1.2158821e-05 0 0)
(1.2498653e-09 -0.0029680682 0 -0.00010951818 0 0)
(-6.6866733e-09 -0.0049543703 0 -0.00030485388 0 0)
(-5.5353715e-09 -0.0069420848 0 -0.00059834148 0 0)
(-4.9995041e-09 0.0069420879 0 -0.0005983426 0 0)
(-5.4146095e-09 0.0049543695 0 -0.000304855 0 0)
(1.8642582e-09 0.0029680644 0 -0.00010951864 0 0)
(9.4937046e-09 0.00098822455 0 -1.2158654e-05 0 0)
(9.3019076e-09 -0.00098822669 0 -1.2158522e-05 0 0)
(1.2468784e-09 -0.0029680655 0 -0.00010951809 0 0)
(-6.2128114e-09 -0.0049543694 0 -0.00030485414 0 0)
(-5.5262008e-09 -0.0069420863 0 -0.00059834185 0 0)
(-4.646508e-09 0.006942089 0 -0.00059834284 0 0)
(-5.4349514e-09 0.0049543686 0 -0.00030485508 0 0)
(1.7995118e-09 0.0029680631 0 -0.00010951849 0 0)
(9.1604542e-09 0.00098822348 0 -1.2158317e-05 0 0)
(9.0015274e-09 -0.00098822518 0 -1.2158197e-05 0 0)
(1.2824489e-09 -0.0029680642 0 -0.00010951805 0 0)
(-6.111859e-09 -0.0049543685 0 -0.00030485436 0 0)
(-5.0808233e-09 -0.0069420876 0 -0.0005983422 0 0)
(-4.7357707e-09 0.0069420904 0 -0.00059834308 0 0)
(-5.1694961e-09 0.0049543679 0 -0.00030485515 0 0)
(1.6701024e-09 0.0029680608 0 -0.00010951831 0 0)
(8.8856447e-09 0.00098822277 0 -1.2158028e-05 0 0)
(8.7587313e-09 -0.00098822459 0 -1.2157954e-05 0 0)
(1.270569e-09 -0.0029680616 0 -0.00010951797 0 0)
(-5.7205752e-09 -0.0049543677 0 -0.00030485456 0 0)
(-5.1209226e-09 -0.0069420891 0 -0.00059834251 0 0)
(-4.4181774e-09 0.0069420915 0 -0.00059834328 0 0)
(-5.2098946e-09 0.0049543671 0 -0.00030485522 0 0)
(1.6220339e-09 0.0029680595 0 -0.00010951819 0 0)
(8.6191201e-09 0.00098822176 0 -1.215776e-05 0 0)
(8.5268948e-09 -0.00098822326 0 -1.2157703e-05 0 0)
(1.2933109e-09 -0.0029680604 0 -0.00010951793 0 0)
(-5.671508e-09 -0.004954367 0 -0.00030485473 0 0)
(-4.7282149e-09 -0.0069420903 0 -0.00059834279 0 0)
(-4.5167927e-09 0.0069420928 0 -0.00059834349 0 0)
(-4.9592501e-09 0.0049543664 0 -0.00030485529 0 0)
(1.5149207e-09 0.0029680574 0 -0.00010951804 0 0)
(8.3779788e-09 0.00098822108 0 -1.2157508e-05 0 0)
(8.300135e-09 -0.00098822266 0 -1.2157478e-05 0 0)
(1.2702599e-09 -0.0029680581 0 -0.00010951785 0 0)
(-5.3268311e-09 -0.0049543662 0 -0.00030485489 0 0)
(-4.7908845e-09 -0.0069420917 0 -0.00059834306 0 0)
(-4.2133587e-09 0.0069420939 0 -0.00059834367 0 0)
(-4.9977441e-09 0.0049543657 0 -0.00030485536 0 0)
(1.4800957e-09 0.0029680562 0 -0.00010951794 0 0)
(8.144474e-09 0.00098822012 0 -1.2157274e-05 0 0)
(8.0982658e-09 -0.00098822148 0 -1.2157261e-05 0 0)
(1.2804842e-09 -0.002968057 0 -0.00010951781 0 0)
(-5.303523e-09 -0.0049543655 0 -0.00030485503 0 0)
(-4.4283403e-09 -0.0069420928 0 -0.00059834331 0 0)
(-4.3112865e-09 0.0069420952 0 -0.00059834388 0 0)
(-4.7500439e-09 0.004954365 0 -0.00030485543 0 0)
(1.3906509e-09 0.0029680542 0 -0.00010951781 0 0)
(7.9200371e-09 0.00098821946 0 -1.2157043e-05 0 0)
(7.8745816e-09 -0.00098822087 0 -1.215704e-05 0 0)
(1.2482319e-09 -0.0029680548 0 -0.00010951773 0 0)
(-4.9889469e-09 -0.0049543648 0 -0.00030485517 0 0)
(-4.502697e-09 -0.0069420941 0 -0.00059834356 0 0)
(-4.0145221e-09 0.0069420962 0 -0.00059834405 0 0)
(-4.780199e-09 0.0049543644 0 -0.00030485551 0 0)
(1.3660991e-09 0.0029680531 0 -0.00010951773 0 0)
(7.7055065e-09 0.00098821856 0 -1.2156829e-05 0 0)
(7.6876797e-09 -0.00098821982 0 -1.2156841e-05 0 0)
(1.2482019e-09 -0.0029680537 0 -0.00010951768 0 0)
(-4.9799192e-09 -0.0049543641 0 -0.0003048553 0 0)
(-4.1606623e-09 -0.0069420952 0 -0.00059834378 0 0)
(-4.1087445e-09 0.0069420974 0 -0.00059834425 0 0)
(-4.5328118e-09 0.0049543638 0 -0.0003048556 0 0)
(1.2906906e-09 0.0029680511 0 -0.00010951762 0 0)
(7.4911326e-09 0.0009882179 0 -1.215661e-05 0 0)
(7.4639309e-09 -0.0009882192 0 -1.2156623e-05 0 0)
(1.2095524e-09 -0.0029680516 0 -0.00010951759 0 0)
(-4.6873707e-09 -0.0049543635 0 -0.00030485543 0 0)
(-4.2418859e-09 -0.0069420964 0 -0.00059834401 0 0)
(-3.8164619e-09 0.0069420984 0 -0.00059834442 0 0)
(-4.554242e-09 0.0049543631 0 -0.00030485568 0 0)
(1.273513e-09 0.0029680501 0 -0.00010951756 0 0)
(7.2895073e-09 0.00098821706 0 -1.2156411e-05 0 0)
(7.2864774e-09 -0.00098821827 0 -1.2156436e-05 0 0)
(1.2018287e-09 -0.0029680506 0 -0.00010951754 0 0)
(-4.686939e-09 -0.0049543628 0 -0.00030485555 0 0)
(-3.9156113e-09 -0.0069420974 0 -0.00059834421 0 0)
(-3.9066514e-09 0.0069420995 0 -0.00059834461 0 0)
(-4.3078848e-09 0.0049543625 0 -0.00030485578 0 0)
(1.2089815e-09 0.0029680482 0 -0.00010951746 0 0)
(7.0825055e-09 0.00098821642 0 -1.2156202e-05 0 0)
(7.0630585e-09 -0.00098821763 0 -1.2156219e-05 0 0)
(1.1593762e-09 -0.0029680487 0 -0.00010951746 0 0)
(-4.4116346e-09 -0.0049543622 0 -0.00030485567 0 0)
(-4.0011777e-09 -0.0069420986 0 -0.00059834442 0 0)
(-3.6185615e-09 0.0069421004 0 -0.00059834478 0 0)
(-4.3222175e-09 0.0049543619 0 -0.00030485587 0 0)
(1.1965734e-09 0.0029680472 0 -0.00010951741 0 0)
(6.8909279e-09 0.00098821563 0 -1.2156014e-05 0 0)
(6.8931082e-09 -0.0009882168 0 -1.2156042e-05 0 0)
(1.1462047e-09 -0.0029680477 0 -0.00010951741 0 0)
(-4.4165672e-09 -0.0049543616 0 -0.00030485578 0 0)
(-3.6878234e-09 -0.0069420995 0 -0.00059834461 0 0)
(-3.7053114e-09 0.0069421016 0 -0.00059834496 0 0)
(-4.078533e-09 0.0049543614 0 -0.00030485597 0 0)
(1.1402818e-09 0.0029680454 0 -0.00010951733 0 0)
(6.6901344e-09 0.00098821501 0 -1.2155813e-05 0 0)
(6.6714508e-09 -0.00098821616 0 -1.2155829e-05 0 0)
(1.1020182e-09 -0.0029680459 0 -0.00010951733 0 0)
(-4.1554395e-09 -0.0049543611 0 -0.00030485589 0 0)
(-3.776186e-09 -0.0069421006 0 -0.00059834481 0 0)
(-3.4217435e-09 0.0069421024 0 -0.00059834512 0 0)
(-4.0878161e-09 0.0049543608 0 -0.00030485606 0 0)
(1.1305372e-09 0.0029680445 0 -0.00010951728 0 0)
(6.5071082e-09 0.00098821427 0 -1.2155635e-05 0 0)
(6.5083215e-09 -0.00098821542 0 -1.2155661e-05 0 0)
(1.0851942e-09 -0.002968045 0 -0.00010951729 0 0)
(-4.163775e-09 -0.0049543605 0 -0.00030485599 0 0)
(-3.4737819e-09 -0.0069421015 0 -0.00059834498 0 0)
(-3.5059046e-09 0.0069421035 0 -0.0005983453 0 0)
(-3.8484338e-09 0.0049543603 0 -0.00030485617 0 0)
(1.0804078e-09 0.0029680428 0 -0.00010951721 0 0)
(6.3120154e-09 0.00098821367 0 -1.2155442e-05 0 0)
(6.2899703e-09 -0.00098821478 0 -1.2155452e-05 0 0)
(1.0408277e-09 -0.0029680433 0 -0.00010951721 0 0)
(-3.9146497e-09 -0.00495436 0 -0.0003048561 0 0)
(-3.5639038e-09 -0.0069421026 0 -0.00059834517 0 0)
(-3.2273188e-09 0.0069421043 0 -0.00059834545 0 0)
(-3.8545203e-09 0.0049543597 0 -0.00030485626 0 0)
(1.0717696e-09 0.002968042 0 -0.00010951716 0 0)
(6.1366991e-09 0.00098821299 0 -1.2155272e-05 0 0)
(6.1334069e-09 -0.00098821412 0 -1.2155292e-05 0 0)
(1.0217307e-09 -0.0029680424 0 -0.00010951716 0 0)
(-3.9251135e-09 -0.0049543594 0 -0.0003048562 0 0)
(-3.2709722e-09 -0.0069421034 0 -0.00059834533 0 0)
(-3.3097506e-09 0.0069421053 0 -0.00059834563 0 0)
(-3.6207e-09 0.0049543593 0 -0.00030485637 0 0)
(1.0262508e-09 0.0029680404 0 -0.0001095171 0 0)
(5.9471394e-09 0.00098821241 0 -1.2155086e-05 0 0)
(5.9197222e-09 -0.00098821348 0 -1.2155088e-05 0 0)
(9.782825e-10 -0.0029680408 0 -0.00010951709 0 0)
(-3.6863954e-09 -0.0049543589 0 -0.00030485631 0 0)
(-3.3621624e-09 -0.0069421044 0 -0.00059834551 0 0)
(-3.0365578e-09 0.006942106 0 -0.00059834578 0 0)
(-3.6250539e-09 0.0049543587 0 -0.00030485647 0 0)
(1.0176676e-09 0.0029680395 0 -0.00010951706 0 0)
(5.7790594e-09 0.00098821178 0 -1.2154924e-05 0 0)
(5.769613e-09 -0.00098821289 0 -1.2154937e-05 0 0)
(9.5792288e-10 -0.00296804 0 -0.00010951705 0 0)
(-3.6981824e-09 -0.0049543584 0 -0.0003048564 0 0)
(-3.0775986e-09 -0.0069421051 0 -0.00059834566 0 0)
(-3.1180415e-09 0.006942107 0 -0.00059834594 0 0)
(-3.3977081e-09 0.0049543583 0 -0.00030485657 0 0)
(9.7565986e-10 0.0029680381 0 -0.000109517 0 0)
(5.5950699e-09 0.00098821123 0 -1.2154745e-05 0 0)
(5.561699e-09 -0.00098821227 0 -1.215474e-05 0 0)
(9.1611864e-10 -0.0029680385 0 -0.00010951699 0 0)
(-3.4687164e-09 -0.0049543579 0 -0.0003048565 0 0)
(-3.1694359e-09 -0.0069421061 0 -0.00059834583 0 0)
(-2.8505527e-09 0.0069421077 0 -0.00059834608 0 0)
(-3.4015275e-09 0.0049543578 0 -0.00030485667 0 0)
(9.6649741e-10 0.0029680373 0 -0.00010951697 0 0)
(5.4339827e-09 0.00098821064 0 -1.215459e-05 0 0)
(5.4179864e-09 -0.00098821173 0 -1.2154595e-05 0 0)
(8.9520501e-10 -0.0029680377 0 -0.00010951695 0 0)
(-3.481382e-09 -0.0049543574 0 -0.0003048566 0 0)
(-2.8924514e-09 -0.0069421068 0 -0.00059834597 0 0)
(-2.9317685e-09 0.0069421086 0 -0.00059834624 0 0)
(-3.181362e-09 0.0049543573 0 -0.00030485677 0 0)
(9.2726122e-10 0.0029680359 0 -0.00010951692 0 0)
(5.2557247e-09 0.00098821012 0 -1.2154418e-05 0 0)
(5.2167015e-09 -0.00098821113 0 -1.2154405e-05 0 0)
(8.5548684e-10 -0.0029680363 0 -0.00010951688 0 0)
(-3.260354e-09 -0.004954357 0 -0.0003048567 0 0)
(-2.9847327e-09 -0.0069421077 0 -0.00059834614 0 0)
(-2.6701937e-09 0.0069421092 0 -0.00059834638 0 0)
(-3.1855784e-09 0.0049543569 0 -0.00030485686 0 0)
(9.1719973e-10 0.0029680351 0 -0.00010951689 0 0)
(5.1015297e-09 0.00098820958 0 -1.215427e-05 0 0)
(5.079349e-09 -0.00098821064 0 -1.2154268e-05 0 0)
(8.3449706e-10 -0.0029680356 0 -0.00010951685 0 0)
(-3.2737215e-09 -0.0049543566 0 -0.00030485679 0 0)
(-2.7147751e-09 -0.0069421084 0 -0.00059834627 0 0)
(-2.7517085e-09 0.0069421101 0 -0.00059834653 0 0)
(-2.9729481e-09 0.0049543565 0 -0.00030485697 0 0)
(8.8026187e-10 0.0029680338 0 -0.00010951684 0 0)
(4.9292305e-09 0.00098820908 0 -1.2154105e-05 0 0)
(4.8853415e-09 -0.00098821006 0 -1.2154085e-05 0 0)
(7.9710263e-10 -0.0029680342 0 -0.00010951679 0 0)
(-3.0605693e-09 -0.0049543561 0 -0.00030485688 0 0)
(-2.8074623e-09 -0.0069421092 0 -0.00059834642 0 0)
(-2.4961759e-09 0.0069421107 0 -0.00059834666 0 0)
(-2.9782254e-09 0.004954356 0 -0.00030485706 0 0)
(8.6919857e-10 0.0029680331 0 -0.00010951681 0 0)
(4.7819074e-09 0.00098820858 0 -1.2153964e-05 0 0)
(4.7543167e-09 -0.00098820961 0 -1.2153955e-05 0 0)
(7.7634755e-10 -0.0029680335 0 -0.00010951676 0 0)
(-3.0746456e-09 -0.0049543557 0 -0.00030485697 0 0)
(-2.544147e-09 -0.0069421098 0 -0.00059834655 0 0)
(-2.5784404e-09 0.0069421115 0 -0.00059834681 0 0)
(-2.7732703e-09 0.0049543557 0 -0.00030485716 0 0)
(8.3427169e-10 0.0029680319 0 -0.00010951676 0 0)
(4.6158125e-09 0.00098820811 0 -1.2153806e-05 0 0)
(4.5680576e-09 -0.00098820906 0 -1.215378e-05 0 0)
(7.4137441e-10 -0.0029680323 0 -0.0001095167 0 0)
(-2.8689788e-09 -0.0049543553 0 -0.00030485706 0 0)
(-2.6373171e-09 -0.0069421106 0 -0.0005983467 0 0)
(-2.3290191e-09 0.006942112 0 -0.00059834692 0 0)
(-2.7800928e-09 0.0049543552 0 -0.00030485724 0 0)
(8.2224275e-10 0.0029680313 0 -0.00010951674 0 0)
(4.4753744e-09 0.00098820765 0 -1.2153671e-05 0 0)
(4.4433208e-09 -0.00098820864 0 -1.2153656e-05 0 0)
(7.2104979e-10 -0.0029680317 0 -0.00010951667 0 0)
(-2.8838841e-09 -0.0049543549 0 -0.00030485715 0 0)
(-2.3803711e-09 -0.0069421112 0 -0.00059834682 0 0)
(-2.412383e-09 0.0069421128 0 -0.00059834707 0 0)
(-2.5828221e-09 0.0049543549 0 -0.00030485734 0 0)
(7.8916142e-10 0.0029680301 0 -0.00010951669 0 0)
(4.3157141e-09 0.00098820721 0 -1.215352e-05 0 0)
(4.2651372e-09 -0.00098820812 0 -1.215349e-05 0 0)
(6.885048e-10 -0.0029680305 0 -0.00010951662 0 0)
(-2.6854196e-09 -0.0049543546 0 -0.00030485724 0 0)
(-2.4741717e-09 -0.006942112 0 -0.00059834696 0 0)
(-2.1690843e-09 0.0069421133 0 -0.00059834718 0 0)
(-2.591535e-09 0.0049543545 0 -0.00030485742 0 0)
(7.7628253e-10 0.0029680295 0 -0.00010951667 0 0)
(4.182175e-09 0.00098820677 0 -1.2153391e-05 0 0)
(4.1466315e-09 -0.00098820774 0 -1.2153372e-05 0 0)
(6.6873056e-10 -0.0029680299 0 -0.0001095166 0 0)
(-2.7013331e-09 -0.0049543542 0 -0.00030485732 0 0)