/*--------------------------------*- C++ -*----------------------------------*\
| =========                 |                                                 |
| \\      /  F ield         | OpenFOAM: The Open Source CFD Toolbox           |
|  \\    /   O peration     | Version:  5.x                                   |
|   \\  /    A nd           | Web:      www.OpenFOAM.org                      |
|    \\/     M anipulation  |                                                 |
\*---------------------------------------------------------------------------*/
FoamFile
{
    version     2.0;
    format      ascii;
    class       volVectorField;
    location    "7";
    object      U;
}
// * * * * * * * * * * * * * * * * * * * * * * * * * * * * * * * * * * * * * //

dimensions      [0 1 -1 0 0 0 0];

internalField   nonuniform List<vector> 
1920
(
(-2.254084e-07 1.3317331e-07 0)
(-5.3174436e-07 6.0713654e-08 0)
(-8.3529528e-07 -2.8066821e-08 0)
(-3.9982317e-07 -8.167334e-08 0)
(4.004983e-07 -8.2814866e-08 0)
(8.3570119e-07 -2.7032529e-08 0)
(5.3196806e-07 6.0029309e-08 0)
(2.2533689e-07 1.3341817e-07 0)
(-6.9690206e-08 2.3306936e-07 0)
(-1.1382505e-06 4.2915383e-07 0)
(-1.7945356e-06 -6.4785315e-08 0)
(-9.1121489e-07 -6.228111e-07 0)
(9.1280887e-07 -6.2062507e-07 0)
(1.7959161e-06 -6.6345383e-08 0)
(1.1384909e-06 4.3066424e-07 0)
(6.9981412e-08 2.3269398e-07 0)
(-1.3439397e-07 6.1990564e-07 0)
(-1.6809694e-06 9.8918301e-07 0)
(-2.5490235e-06 -1.4707156e-07 0)
(-1.2110675e-06 -1.4399813e-06 0)
(1.2134762e-06 -1.4429755e-06 0)
(2.5504796e-06 -1.4364692e-07 0)
(1.6820403e-06 9.8783308e-07 0)
(1.3418045e-07 6.2086288e-07 0)
(-1.8732858e-07 1.1119453e-06 0)
(-2.1238524e-06 1.668626e-06 0)
(-2.9769434e-06 -2.7840208e-07 0)
(-1.4770897e-06 -2.5021112e-06 0)
(1.4796012e-06 -2.4975327e-06 0)
(2.9790923e-06 -2.8099221e-07 0)
(2.1244401e-06 1.6722006e-06 0)
(1.8767158e-07 1.1114839e-06 0)
(-2.4943087e-07 1.7107304e-06 0)
(-2.3096445e-06 2.4349788e-06 0)
(-3.2851522e-06 -4.6007543e-07 0)
(-1.5274432e-06 -3.6862017e-06 0)
(1.5300251e-06 -3.6904816e-06 0)
(3.2867964e-06 -4.5437619e-07 0)
(2.3108033e-06 2.4335876e-06 0)
(2.493109e-07 1.7125157e-06 0)
(-2.4411703e-07 2.3561325e-06 0)
(-2.4161214e-06 3.2182671e-06 0)
(-3.2859775e-06 -6.4620879e-07 0)
(-1.6169952e-06 -4.93266e-06 0)
(1.6190013e-06 -4.9265963e-06 0)
(3.2876891e-06 -6.4898289e-07 0)
(2.4166899e-06 3.2234253e-06 0)
(2.4434069e-07 2.355887e-06 0)
(-2.6082498e-07 2.9942709e-06 0)
(-2.3006375e-06 4.0002185e-06 0)
(-3.2410835e-06 -8.4595092e-07 0)
(-1.4975873e-06 -6.1532623e-06 0)
(1.4990344e-06 -6.1579404e-06 0)
(3.2420508e-06 -8.3903137e-07 0)
(2.3012692e-06 3.9991879e-06 0)
(2.608312e-07 2.9966027e-06 0)
(-2.2284042e-07 3.602495e-06 0)
(-2.1697243e-06 4.7310047e-06 0)
(-2.9546523e-06 -1.0243688e-06 0)
(-1.4499528e-06 -7.3171558e-06 0)
(1.4505689e-06 -7.3107316e-06 0)
(2.955155e-06 -1.0268593e-06 0)
(2.1699716e-06 4.7367773e-06 0)
(2.2285591e-07 3.6025018e-06 0)
(-2.1183821e-07 4.1478189e-06 0)
(-1.8953717e-06 5.4039404e-06 0)
(-2.6866218e-06 -1.1947666e-06 0)
(-1.245415e-06 -8.3635698e-06 0)
(1.2452228e-06 -8.3679304e-06 0)
(2.6865497e-06 -1.1878683e-06 0)
(1.8952568e-06 5.4032917e-06 0)
(2.119366e-07 4.1502256e-06 0)
(-1.6461586e-07 4.6250878e-06 0)
(-1.651309e-06 5.989219e-06 0)
(-2.2805906e-06 -1.3312308e-06 0)
(-1.120552e-06 -9.291453e-06 0)
(1.1196583e-06 -9.2856547e-06 0)
(2.2798238e-06 -1.3332722e-06 0)
(1.6511604e-06 5.9945669e-06 0)
(1.644573e-07 4.6252208e-06 0)
(-1.4177192e-07 5.0214056e-06 0)
(-1.3428849e-06 6.4921816e-06 0)
(-1.9315149e-06 -1.4512582e-06 0)
(-9.0475186e-07 -1.0068669e-05 0)
(9.0314565e-07 -1.0072299e-05 0)
(1.9305165e-06 -1.4454181e-06 0)
(1.3421736e-06 6.4917195e-06 0)
(1.4191287e-07 5.0234623e-06 0)
(-1.0136975e-07 5.3433566e-06 0)
(-1.0855789e-06 6.9013118e-06 0)
(-1.5364308e-06 -1.5381657e-06 0)
(-7.5683732e-07 -1.0713581e-05 0)
(7.5483617e-07 -1.0709019e-05 0)
(1.5347776e-06 -1.5398401e-06 0)
(1.085121e-06 6.9054868e-06 0)
(1.0112617e-07 5.3434542e-06 0)
(-7.7860598e-08 5.5908959e-06 0)
(-8.2296064e-07 7.2306749e-06 0)
(-1.2105179e-06 -1.6090284e-06 0)
(-5.7698886e-07 -1.1217167e-05 0)
(5.7451374e-07 -1.1219971e-05 0)
(1.2089236e-06 -1.6048323e-06 0)
(8.2193735e-07 7.2301386e-06 0)
(7.7997729e-08 5.5923525e-06 0)
(-5.039558e-08 5.7768621e-06 0)
(-6.1211085e-07 7.4805687e-06 0)
(-9.0098668e-07 -1.6539781e-06 0)
(-4.456717e-07 -1.1608016e-05 0)
(4.4305175e-07 -1.1604887e-05 0)
(8.9889062e-07 -1.655507e-06 0)
(6.1145808e-07 7.4832175e-06 0)
(5.014896e-08 5.7767922e-06 0)
(-3.2158722e-08 5.907517e-06 0)
(-4.2835709e-07 7.6685278e-06 0)
(-6.5361842e-07 -1.6877086e-06 0)
(-3.2061908e-07 -1.1890614e-05 0)
(3.1771589e-07 -1.1892734e-05 0)
(6.5169668e-07 -1.6853246e-06 0)
(4.2723817e-07 7.6676638e-06 0)
(3.2259335e-08 5.9082922e-06 0)
(-1.7421053e-08 5.9964798e-06 0)
(-2.8542705e-07 7.7999699e-06 0)
(-4.5060605e-07 -1.7043412e-06 0)
(-2.2448451e-07 -1.2093956e-05 0)
(2.2153843e-07 -1.2092173e-05 0)
(4.4832821e-07 -1.7060126e-06 0)
(2.8463682e-07 7.8010312e-06 0)
(1.7214494e-08 5.9961419e-06 0)
(-5.9547589e-09 6.0512184e-06 0)
(-1.7870099e-07 7.8913814e-06 0)
(-2.9256173e-07 -1.7152662e-06 0)
(-1.5153261e-07 -1.2227238e-05 0)
(1.4840417e-07 -1.2228942e-05 0)
(2.9042717e-07 -1.71462e-06 0)
(1.7757181e-07 7.889949e-06 0)
(6.0024602e-09 6.0513196e-06 0)
(-5.7101078e-10 6.0827629e-06 0)
(-9.7634752e-08 7.9485313e-06 0)
(-1.8153508e-07 -1.716679e-06 0)
(-9.1604786e-08 -1.2313921e-05 0)
(8.8454097e-08 -1.2313267e-05 0)
(1.7916181e-07 -1.7187934e-06 0)
(9.6720292e-08 7.9480691e-06 0)
(4.1139914e-10 6.082066e-06 0)
(5.3663236e-09 6.0969412e-06 0)
(-4.8262173e-08 7.9841796e-06 0)
(-9.6301619e-08 -1.7165197e-06 0)
(-5.7385926e-08 -1.2362328e-05 0)
(5.4127092e-08 -1.2363889e-05 0)
(9.4011299e-08 -1.7174553e-06 0)
(4.7138704e-08 7.9819569e-06 0)
(-5.3717436e-09 6.0963939e-06 0)
(5.3078514e-09 6.1010677e-06 0)
(-1.062627e-08 8.0023141e-06 0)
(-4.8486847e-08 -1.7120495e-06 0)
(-2.5074561e-08 -1.2388395e-05 0)
(2.1819356e-08 -1.2388651e-05 0)
(4.6085609e-08 -1.7148643e-06 0)
(9.6180179e-09 8.0004184e-06 0)
(-5.4297264e-09 6.0999302e-06 0)
(7.8788515e-09 6.0985586e-06 0)
(4.2681591e-09 8.0113217e-06 0)
(-1.0545882e-08 -1.7082565e-06 0)
(-1.4528821e-08 -1.2397415e-05 0)
(1.1289805e-08 -1.2399063e-05 0)
(8.2155211e-09 -1.7106101e-06 0)
(-5.3556888e-09 8.0081469e-06 0)
(-7.9246311e-09 6.0973887e-06 0)
(5.4174087e-09 6.0934297e-06 0)
(1.7482154e-08 8.0131554e-06 0)
(1.7225072e-09 -1.7030717e-06 0)
(9.254894e-10 -1.2398639e-05 0)
(-4.0549778e-09 -1.2399609e-05 0)
(-4.0027482e-09 -1.7067383e-06 0)
(-1.8497875e-08 8.0099375e-06 0)
(-5.5096394e-09 6.0918044e-06 0)
(6.5043421e-09 6.0871256e-06 0)
(1.5850091e-08 8.0125447e-06 0)
(1.4814849e-08 -1.6993293e-06 0)
(-4.0551072e-10 -1.2394452e-05 0)
(-2.5357602e-09 -1.2396319e-05 0)
(-1.6961862e-08 -1.7029181e-06 0)
(-1.6818938e-08 8.0083735e-06 0)
(-6.5700536e-09 6.0853805e-06 0)
(3.4449932e-09 6.0814116e-06 0)
(1.8444359e-08 8.0100096e-06 0)
(1.1157916e-08 -1.6954937e-06 0)
(6.8086637e-09 -1.2389448e-05 0)
(-9.4801464e-09 -1.2390973e-05 0)
(-1.3084119e-08 -1.7000145e-06 0)
(-1.9337294e-08 8.0056453e-06 0)
(-3.5083794e-09 6.0793163e-06 0)
(4.2086198e-09 6.0765673e-06 0)
(1.118916e-08 8.0078259e-06 0)
(1.4228309e-08 -1.6930386e-06 0)
(9.0790445e-10 -1.2384118e-05 0)
(-3.2025247e-09 -1.2386228e-05 0)
(-1.5926293e-08 -1.6976219e-06 0)
(-1.1926736e-08 8.0027678e-06 0)
(-4.2732387e-09 6.0743428e-06 0)
(1.3510898e-09 6.0731299e-06 0)
(1.091489e-08 8.0057932e-06 0)
(5.6796218e-09 -1.6908807e-06 0)
(5.152286e-09 -1.238037e-05 0)
(-7.0338994e-09 -1.2382291e-05 0)
(-7.0110614e-09 -1.6961031e-06 0)
(-1.1556105e-08 8.0005535e-06 0)
(-1.3818236e-09 6.0706589e-06 0)
(2.2999357e-09 6.0708842e-06 0)
(3.1946572e-09 8.0048223e-06 0)
(6.4328092e-09 -1.6897429e-06 0)
(-1.7047867e-09 -1.2377808e-05 0)
(3.3264988e-10 -1.2380111e-05 0)
(-7.4658719e-09 -1.6950104e-06 0)
(-3.6071057e-09 7.9991314e-06 0)
(-2.34779e-09 6.0683304e-06 0)
(-1.5558617e-10 6.0698477e-06 0)
(3.3439795e-09 8.0044907e-06 0)
(-2.1744431e-09 -1.6888986e-06 0)
(2.0892951e-09 -1.2377068e-05 0)
(-2.9723086e-09 -1.2379225e-05 0)
(1.5879406e-09 -1.6945516e-06 0)
(-3.6530909e-09 7.9987291e-06 0)
(1.6008117e-10 6.0671559e-06 0)
(1.0899364e-09 6.0697012e-06 0)
(-3.1544352e-09 8.0050827e-06 0)
(-7.35107e-10 -1.6887069e-06 0)
(-4.3915456e-09 -1.2377506e-05 0)
(4.0604393e-09 -1.2379896e-05 0)
(4.5878535e-10 -1.6943034e-06 0)
(3.104782e-09 7.9991026e-06 0)
(-1.1138138e-09 6.0670023e-06 0)
(-1.0241871e-09 6.0703216e-06 0)
(-1.7493932e-09 8.0061993e-06 0)
(-8.0044739e-09 -1.6886935e-06 0)
(-1.9704471e-10 -1.2379281e-05 0)
(3.4015903e-10 -1.2381518e-05 0)
(8.1787746e-09 -1.6944515e-06 0)
(1.7836642e-09 8.0003013e-06 0)
(1.061919e-09 6.0675897e-06 0)
(4.6040982e-10 6.0714466e-06 0)
(-6.9347125e-09 8.0079032e-06 0)
(-5.261576e-09 -1.6890636e-06 0)
(-6.0743911e-09 -1.2381804e-05 0)
(6.720015e-09 -1.2384162e-05 0)
(5.6953576e-09 -1.6946361e-06 0)
(7.2207075e-09 8.0019949e-06 0)
(-4.6112004e-10 6.0687881e-06 0)
(-1.4354578e-09 6.0729671e-06 0)
(-4.447325e-09 8.0098933e-06 0)
(-1.1249589e-08 -1.6895011e-06 0)
(-1.3994818e-09 -1.2385124e-05 0)
(2.4261953e-09 -1.2387299e-05 0)
(1.2075483e-08 -1.6950497e-06 0)
(4.7740138e-09 8.0042154e-06 0)
(1.4996756e-09 6.0703648e-06 0)
(1.9529783e-10 6.0747088e-06 0)
(-8.7195604e-09 8.0121908e-06 0)
(-7.4729908e-09 -1.6901567e-06 0)
(-6.8304421e-09 -1.2388784e-05 0)
(8.2451821e-09 -1.2390998e-05 0)
(8.4631742e-09 -1.6954034e-06 0)
(9.2643541e-09 8.0066674e-06 0)
(-1.7913306e-10 6.0722466e-06 0)
(-1.5845588e-09 6.0766144e-06 0)
(-5.5544193e-09 8.0145846e-06 0)
(-1.262152e-08 -1.6908029e-06 0)
(-1.8377739e-09 -1.2392851e-05 0)
(3.4954579e-09 -1.2394856e-05 0)
(1.3909358e-08 -1.6958897e-06 0)
(6.0839044e-09 8.0094054e-06 0)
(1.6657503e-09 6.0742725e-06 0)
(1.1821909e-10 6.0785786e-06 0)
(-9.3180512e-09 8.0171152e-06 0)
(-8.2375589e-09 -1.6915769e-06 0)
(-7.0271622e-09 -1.239699e-05 0)
(8.9304714e-09 -1.239898e-05 0)
(9.5766718e-09 -1.6962806e-06 0)
(1.0021088e-08 8.0122004e-06 0)
(-9.3745115e-11 6.0764198e-06 0)
(-1.6087337e-09 6.0805889e-06 0)
(-5.8112843e-09 8.0196303e-06 0)
(-1.2943947e-08 -1.6922959e-06 0)
(-1.8883513e-09 -1.2401309e-05 0)
(3.8872374e-09 -1.2403072e-05 0)
(1.4478074e-08 -1.6967568e-06 0)
(6.4425553e-09 8.0151256e-06 0)
(1.697124e-09 6.0785859e-06 0)
(1.207055e-10 6.0825808e-06 0)
(-9.3379118e-09 8.0221988e-06 0)
(-8.2790325e-09 -1.6930974e-06 0)
(-6.9788909e-09 -1.2405555e-05 0)
(9.0857819e-09 -1.2407273e-05 0)
(9.7573816e-09 -1.6971368e-06 0)
(1.0099633e-08 8.0180128e-06 0)
(-9.6109872e-11 6.0807786e-06 0)
(-1.5850156e-09 6.0845704e-06 0)
(-5.6971403e-09 8.0246991e-06 0)
(-1.2793926e-08 -1.6938189e-06 0)
(-1.8065949e-09 -1.2409867e-05 0)
(3.8795993e-09 -1.2411357e-05 0)
(1.4377114e-08 -1.6975821e-06 0)
(6.339265e-09 8.0209413e-06 0)
(1.6724652e-09 6.0829335e-06 0)
(1.4794222e-10 6.0865128e-06 0)
(-9.1326934e-09 8.0272218e-06 0)
(-8.03867e-09 -1.6946018e-06 0)
(-6.8705842e-09 -1.2414041e-05 0)
(8.9400221e-09 -1.2415475e-05 0)
(9.4802175e-09 -1.6979448e-06 0)
(9.871252e-09 8.023789e-06 0)
(-1.294577e-10 6.0850721e-06 0)
(-1.5492916e-09 6.0884389e-06 0)
(-5.4634113e-09 8.0296575e-06 0)
(-1.2488251e-08 -1.6952921e-06 0)
(-1.7200483e-09 -1.2418231e-05 0)
(3.6588303e-09 -1.2419448e-05 0)
(1.3968003e-08 -1.6983651e-06 0)
(6.0476788e-09 8.0266318e-06 0)
(1.630211e-09 6.0871532e-06 0)
(1.7726177e-10 6.0903116e-06 0)
(-8.8718302e-09 8.0321093e-06 0)
(-7.7330129e-09 -1.6960343e-06 0)
(-6.7816259e-09 -1.2422263e-05 0)
(8.640414e-09 -1.2423428e-05 0)
(9.0126023e-09 -1.6987193e-06 0)
(9.5305695e-09 8.02938e-06 0)
(-1.6863076e-10 6.0892017e-06 0)
(-1.5148842e-09 6.0921681e-06 0)
(-5.2178858e-09 8.0344714e-06 0)
(-1.2166474e-08 -1.6966789e-06 0)
(-1.6709157e-09 -1.2426293e-05 0)
(3.3387257e-09 -1.2427261e-05 0)
(1.3443915e-08 -1.6991273e-06 0)
(5.701374e-09 8.032101e-06 0)
(1.5862966e-09 6.0911898e-06 0)
(2.0190798e-10 6.093973e-06 0)
(-8.6196176e-09 8.0368523e-06 0)
(-7.4439345e-09 -1.6973714e-06 0)
(-6.7291545e-09 -1.2430163e-05 0)
(8.2753611e-09 -1.2431092e-05 0)
(8.48928e-09 -1.699484e-06 0)
(9.1672482e-09 8.0347279e-06 0)
(-2.0457438e-10 6.0931409e-06 0)
(-1.4848045e-09 6.0957656e-06 0)
(-4.9939181e-09 8.039146e-06 0)
(-1.1871703e-08 -1.6979656e-06 0)
(-1.6577857e-09 -1.2434027e-05 0)
(2.9854679e-09 -1.2434786e-05 0)
(1.2898036e-08 -1.6998904e-06 0)
(5.3571797e-09 8.0373176e-06 0)
(1.5458866e-09 6.0950353e-06 0)
(2.2159243e-10 6.09751e-06 0)
(-8.3902903e-09 8.0414622e-06 0)
(-7.1872337e-09 -1.6986061e-06 0)
(-6.7023027e-09 -1.2437738e-05 0)
(7.8957458e-09 -1.2438475e-05 0)
(7.9714041e-09 -1.7002569e-06 0)
(8.8167087e-09 8.0398199e-06 0)
(-2.3525962e-10 6.0968929e-06 0)
(-1.4583053e-09 6.0992453e-06 0)
(-4.7929315e-09 8.0436946e-06 0)
(-1.1604206e-08 -1.6991507e-06 0)
(-1.6632783e-09 -1.2441443e-05 0)
(2.6360498e-09 -1.2442039e-05 0)
(1.2370489e-08 -1.700668e-06 0)
(5.0347126e-09 8.0422812e-06 0)
(1.5097272e-09 6.0986993e-06 0)
(2.3791994e-10 6.1009354e-06 0)
(-8.178937e-09 8.0459515e-06 0)
(-6.9531695e-09 -1.6997409e-06 0)
(-6.6826062e-09 -1.2445004e-05 0)
(7.5294526e-09 -1.2445596e-05 0)
(7.4828996e-09 -1.7010472e-06 0)
(8.4893137e-09 8.0446637e-06 0)
(-2.6119457e-10 6.1004704e-06 0)
(-1.4338264e-09 6.1026182e-06 0)
(-4.6062367e-09 8.0481269e-06 0)
(-1.1350473e-08 -1.7002394e-06 0)
(-1.668624e-09 -1.2448559e-05 0)
(2.3097936e-09 -1.2449038e-05 0)
(1.1875346e-08 -1.7014648e-06 0)
(4.7374565e-09 8.0470037e-06 0)
(1.4771099e-09 6.1021958e-06 0)
(2.5255549e-10 6.1042572e-06 0)
(-7.9762085e-09 8.0503265e-06 0)
(-6.7265034e-09 -1.7007831e-06 0)
(-6.6537421e-09 -1.2451978e-05 0)
(7.190315e-09 -1.245247e-05 0)
(7.030108e-09 -1.7018561e-06 0)
(8.1851264e-09 8.0492742e-06 0)
(-2.8351279e-10 6.1038874e-06 0)
(-1.4100584e-09 6.1058893e-06 0)
(-4.4244826e-09 8.0524456e-06 0)
(-1.1096419e-08 -1.7012403e-06 0)
(-1.65963e-09 -1.2455391e-05 0)
(2.0152377e-09 -1.2455796e-05 0)
(1.1414683e-08 -1.7022785e-06 0)
(4.4628198e-09 8.0515016e-06 0)
(1.447065e-09 6.105538e-06 0)
(2.6668872e-10 6.1074782e-06 0)
(-7.7740876e-09 8.0545867e-06 0)
(-6.4945955e-09 -1.7017425e-06 0)
(-6.6048422e-09 -1.2458677e-05 0)
(6.8835657e-09 -1.2459108e-05 0)
(6.6116065e-09 -1.7026788e-06 0)
(7.9006748e-09 8.0536678e-06 0)
(-3.0329108e-10 6.107156e-06 0)
(-1.3861776e-09 6.1090593e-06 0)
(-4.2408216e-09 8.0566477e-06 0)
(-1.0832003e-08 -1.7021637e-06 0)
(-1.6279841e-09 -1.2461955e-05 0)
(1.7543557e-09 -1.2462321e-05 0)
(1.0985481e-08 -1.7031028e-06 0)
(4.2065099e-09 8.0557907e-06 0)
(1.4187567e-09 6.1087369e-06 0)
(2.8101046e-10 6.1105972e-06 0)
(-7.5674132e-09 8.0587273e-06 0)
(-6.2495526e-09 -1.7026295e-06 0)
(-6.5305879e-09 -1.2465113e-05 0)
(6.6092772e-09 -1.2465515e-05 0)
(6.222917e-09 -1.7035077e-06 0)
(7.6317913e-09 8.05786e-06 0)
(-3.2137379e-10 6.1102859e-06 0)
(-1.3617813e-09 6.112126e-06 0)
(-4.0513296e-09 8.0607266e-06 0)
(-1.0551869e-08 -1.70302e-06 0)
(-1.5704794e-09 -1.246826e-05 0)
(1.5252773e-09 -1.2468614e-05 0)
(1.058292e-08 -1.7039292e-06 0)
(3.9642705e-09 8.0598855e-06 0)
(1.3915651e-09 6.1118008e-06 0)
(2.9583955e-10 6.1136112e-06 0)
(-7.3536975e-09 8.0627404e-06 0)
(-5.9878742e-09 -1.7034543e-06 0)
(-6.4300306e-09 -1.2471293e-05 0)
(6.3646274e-09 -1.247169e-05 0)
(5.8587347e-09 -1.7043339e-06 0)
(7.3746941e-09 8.0618637e-06 0)
(-3.3837241e-10 6.1132842e-06 0)
(-1.3367563e-09 6.1150857e-06 0)
(-3.8544582e-09 8.0646739e-06 0)
(-1.0254493e-08 -1.7038187e-06 0)
(-1.4875886e-09 -1.2474312e-05 0)
(1.3241115e-09 -1.2474676e-05 0)
(1.0201939e-08 -1.7047485e-06 0)
(3.7324912e-09 8.0637976e-06 0)
(1.3650668e-09 6.114736e-06 0)
(3.1125786e-10 6.1165164e-06 0)
(-7.1324395e-09 8.0666178e-06 0)
(-5.7093192e-09 -1.7042258e-06 0)
(-6.305148e-09 -1.2477222e-05 0)
(6.1454174e-09 -1.2477632e-05 0)
(5.513984e-09 -1.7051486e-06 0)
(7.1263331e-09 8.0656898e-06 0)
(-3.5470891e-10 6.1161563e-06 0)
(-1.3111624e-09 6.1179347e-06 0)
(-3.6502994e-09 8.0684813e-06 0)
(-9.9409839e-09 -1.7045681e-06 0)
(-1.3820663e-09 -1.2480116e-05 0)
(1.1461678e-09 -1.2480503e-05 0)
(9.8379752e-09 -1.7055525e-06 0)
(3.5083622e-09 8.0675368e-06 0)
(1.3389942e-09 6.1175471e-06 0)
(3.2721311e-10 6.1193089e-06 0)
(-6.9044259e-09 8.0703515e-06 0)
(-5.4157405e-09 -1.7049518e-06 0)
(-6.1595812e-09 -1.2482904e-05 0)
(5.9470667e-09 -1.2483339e-05 0)
(5.1843018e-09 -1.7059439e-06 0)
(6.8844441e-09 8.0693466e-06 0)
(-3.7066058e-10 6.1189061e-06 0)
(-1.285149e-09 6.1206692e-06 0)
(-3.4399473e-09 8.0721415e-06 0)
(-9.6140289e-09 -1.7052754e-06 0)
(-1.2578336e-09 -1.2485674e-05 0)
(9.8674065e-10 -1.2486092e-05 0)
(9.4872777e-09 -1.7063339e-06 0)
(3.2898538e-09 8.0711104e-06 0)
(1.3131969e-09 6.1202372e-06 0)
(3.4358631e-10 6.1219856e-06 0)
(-6.6711768e-09 8.0739348e-06 0)
(-5.1101475e-09 -1.7056386e-06 0)
(-5.9976884e-09 -1.2488342e-05 0)
(5.7652261e-09 -1.2488807e-05 0)
(4.8662227e-09 -1.7067134e-06 0)
(6.647488e-09 8.0728408e-06 0)
(-3.8639637e-10 6.1215363e-06 0)
(-1.2589031e-09 6.1232867e-06 0)
(-3.2250267e-09 8.0756487e-06 0)
(-9.2770893e-09 -1.705946e-06 0)
(-1.1191932e-09 -1.2490988e-05 0)
(8.4156926e-10 -1.2491442e-05 0)
(9.1470007e-09 -1.707087e-06 0)
(3.0756264e-09 8.0745243e-06 0)
(1.2876108e-09 6.1228088e-06 0)
(3.6023266e-10 6.1245441e-06 0)
(-6.4345547e-09 8.0773627e-06 0)
(-4.7960394e-09 -1.7062911e-06 0)
(-5.8239118e-09 -1.2493538e-05 0)
(5.5961108e-09 -1.2494035e-05 0)
(4.5571957e-09 -1.707452e-06 0)
(6.4145457e-09 8.0761775e-06 0)
(-4.0200529e-10 6.1240492e-06 0)
(-1.2326187e-09 6.1257853e-06 0)
(-3.0073739e-09 8.0789986e-06 0)
(-8.9338592e-09 -1.7065843e-06 0)
(-9.7033175e-10 -1.2496062e-05 0)
(7.0706352e-10 -1.2496551e-05 0)
(8.8151655e-09 -1.7078075e-06 0)
(2.8649144e-09 8.0777831e-06 0)
(1.2622331e-09 6.125264e-06 0)
(3.770042e-10 6.1269833e-06 0)
(-6.1965091e-09 8.0806319e-06 0)
(-4.4769716e-09 -1.706913e-06 0)
(-5.6423986e-09 -1.2498493e-05 0)
(5.4366382e-09 -1.2499021e-05 0)
(4.2555059e-09 -1.7081561e-06 0)
(6.1851988e-09 8.079361e-06 0)
(-4.1751856e-10 6.1264465e-06 0)
(-1.2064802e-09 6.1281643e-06 0)
(-2.7888359e-09 8.0821889e-06 0)
(-8.5879261e-09 -1.7071935e-06 0)
(-8.1504126e-10 -1.2500897e-05 0)
(5.8037007e-10 -1.2501418e-05 0)
(8.4905526e-09 -1.7084922e-06 0)
(2.6574061e-09 8.0808905e-06 0)
(1.2371034e-09 6.1276044e-06 0)
(3.9376159e-10 6.1293029e-06 0)
(-5.9589211e-09 8.083741e-06 0)
(-4.1562965e-09 -1.7075071e-06 0)
(-5.4568057e-09 -1.2503211e-05 0)
(5.2844378e-09 -1.2503767e-05 0)
(3.9601454e-09 -1.7088233e-06 0)
(5.9594101e-09 8.0823946e-06 0)
(-4.3292736e-10 6.1287299e-06 0)
(-1.1806549e-09 6.1304238e-06 0)
(-2.571151e-09 8.0852188e-06 0)
(-8.2425784e-09 -1.7077757e-06 0)
(-6.5659125e-10 -1.2505495e-05 0)
(4.5933977e-10 -1.2506045e-05 0)
(8.1725604e-09 -1.7091395e-06 0)
(2.4531266e-09 8.0838498e-06 0)
(1.2122874e-09 6.1298317e-06 0)
(4.1037981e-10 6.1315033e-06 0)
(-5.7235147e-09 8.08669e-06 0)
(-3.8370245e-09 -1.7080753e-06 0)
(-5.2702263e-09 -1.2507695e-05 0)
(5.1377878e-09 -1.2508273e-05 0)
(3.6706658e-09 -1.7094524e-06 0)
(5.7374132e-09 8.0852815e-06 0)
(-4.4819689e-10 6.1309011e-06 0)
(-1.1552889e-09 6.1325649e-06 0)
(-2.3558852e-09 8.0880892e-06 0)
(-7.9007099e-09 -1.7083328e-06 0)
(-4.9769729e-10 -1.2509862e-05 0)
(3.4244103e-10 -1.2510434e-05 0)
(7.8610574e-09 -1.7097485e-06 0)
(2.2523342e-09 8.0866641e-06 0)
(1.1878651e-09 6.1319478e-06 0)
(4.2675016e-10 6.1335862e-06 0)
(-5.4918119e-09 8.0894803e-06 0)
(-3.5217626e-09 -1.7086189e-06 0)
(-5.0851905e-09 -1.2511947e-05 0)
(4.9955144e-09 -1.2512543e-05 0)
(3.3870326e-09 -1.7100429e-06 0)
(5.5196163e-09 8.0880247e-06 0)
(-4.6327722e-10 6.1329622e-06 0)
(-1.1305069e-09 6.1345895e-06 0)
(-2.1444008e-09 8.090802e-06 0)
(-7.5647863e-09 -1.7088658e-06 0)
(-3.4054473e-10 -1.2514e-05 0)
(2.2865155e-10 -1.2514588e-05 0)
(7.556243e-09 -1.7103191e-06 0)
(2.0554313e-09 8.0893362e-06 0)
(1.1639213e-09 6.1339546e-06 0)
(4.4278052e-10 6.1355537e-06 0)
(-5.2651153e-09 8.0921145e-06 0)
(-3.2127014e-09 -1.7091389e-06 0)
(-4.9037068e-09 -1.2515974e-05 0)
(4.8568821e-09 -1.2516582e-05 0)
(3.1094936e-09 -1.7105951e-06 0)
(5.3065227e-09 8.0906273e-06 0)
(-4.7811184e-10 6.1349152e-06 0)
(-1.1064124e-09 6.1364999e-06 0)
(-1.937849e-09 8.0933604e-06 0)
(-7.2368479e-09 -1.7093754e-06 0)
(-1.8684001e-10 -1.2517914e-05 0)
(1.1734835e-10 -1.2518514e-05 0)
(7.2585267e-09 -1.7108519e-06 0)
(1.8628929e-09 8.0918694e-06 0)
(1.1405389e-09 6.1358546e-06 0)
(4.5839484e-10 6.1374085e-06 0)
(-5.044507e-09 8.0945963e-06 0)
(-2.9116283e-09 -1.7096359e-06 0)
(-4.7273206e-09 -1.251978e-05 0)
(4.7214878e-09 -1.2520394e-05 0)
(2.8384682e-09 -1.71111e-06 0)
(5.0986675e-09 8.0930925e-06 0)
(-4.9264353e-10 6.1367626e-06 0)
(-1.0830888e-09 6.1382993e-06 0)
(-1.737173e-09 8.0957685e-06 0)
(-6.9185329e-09 -1.7098623e-06 0)
(-3.7873023e-11 -1.2521611e-05 0)
(8.2072174e-12 -1.2522216e-05 0)
(6.9684293e-09 -1.711348e-06 0)
(1.6752112e-09 8.0942671e-06 0)
(1.1177939e-09 6.1376502e-06 0)
(4.7353212e-10 6.139154e-06 0)
(-4.830857e-09 8.09693e-06 0)
(-2.6199564e-09 -1.7101104e-06 0)
(-4.5571792e-09 -1.2523371e-05 0)
(4.5891685e-09 -1.2523985e-05 0)
(2.5744588e-09 -1.7115886e-06 0)
(4.8965715e-09 8.0954238e-06 0)
(-5.0681866e-10 6.138507e-06 0)
(-1.0606012e-09 6.1399911e-06 0)
(-1.5431189e-09 8.0980309e-06 0)
(-6.6111103e-09 -1.7103267e-06 0)
(1.0541991e-10 -1.2525096e-05 0)
(-9.8883233e-11 -1.25257e-05 0)
(6.6865063e-09 -1.7118087e-06 0)
(1.4928553e-09 8.0965326e-06 0)
(1.0957529e-09 6.1393444e-06 0)
(4.8814528e-10 6.1407937e-06 0)
(-4.6248376e-09 8.0991207e-06 0)
(-2.3387592e-09 -1.7105627e-06 0)
(-4.3940941e-09 -1.2526754e-05 0)
(4.4599246e-09 -1.2527364e-05 0)
(2.3179839e-09 -1.7120326e-06 0)
(4.7007076e-09 8.0976248e-06 0)
(-5.2058982e-10 6.1401516e-06 0)
(-1.0389973e-09 6.1415792e-06 0)
(-1.3562512e-09 8.1001529e-06 0)
(-6.3155178e-09 -1.7107691e-06 0)
(2.4239754e-10 -1.2528376e-05 0)
(-2.0389114e-10 -1.2528976e-05 0)
(6.4132918e-09 -1.7122357e-06 0)
(1.3162431e-09 8.0986699e-06 0)
(1.0744708e-09 6.1409402e-06 0)
(5.0219978e-10 6.1423317e-06 0)
(-4.4269399e-09 8.1011738e-06 0)
(-2.0688077e-09 -1.7109931e-06 0)
(-4.2385976e-09 -1.2529935e-05 0)
(4.3338591e-09 -1.2530536e-05 0)
(2.0695299e-09 -1.7124436e-06 0)
(4.5114797e-09 8.0996995e-06 0)
(-5.3391744e-10 6.1416994e-06 0)
(-1.0183097e-09 6.1430676e-06 0)
(-1.1769693e-09 8.1021402e-06 0)
(-6.0324003e-09 -1.7111897e-06 0)
(3.7266102e-10 -1.2531459e-05 0)
(-3.0669604e-10 -1.2532049e-05 0)
(6.1492596e-09 -1.7126307e-06 0)
(1.1457242e-09 8.1006831e-06 0)
(1.0539905e-09 6.1424409e-06 0)
(5.1567264e-10 6.1437722e-06 0)
(-4.2374922e-09 8.1030951e-06 0)
(-1.8106081e-09 -1.711402e-06 0)
(-4.0909931e-09 -1.2532923e-05 0)
(4.2111309e-09 -1.2533511e-05 0)
(1.8295182e-09 -1.7128235e-06 0)
(4.3292098e-09 8.1016521e-06 0)
(-5.4677033e-10 6.1431539e-06 0)
(-9.9855709e-10 6.1444606e-06 0)
(-1.0055255e-09 8.1039986e-06 0)
(-5.7621471e-09 -1.7115888e-06 0)
(4.9600856e-10 -1.2534351e-05 0)
(-4.0713037e-10 -1.2534928e-05 0)
(5.8947984e-09 -1.7129956e-06 0)
(9.8157008e-10 8.1025763e-06 0)
(1.0343431e-09 6.14385e-06 0)
(5.2855094e-10 6.1451194e-06 0)
(-4.0566788e-09 8.1048906e-06 0)
(-1.5644369e-09 -1.7117897e-06 0)
(-3.9513984e-09 -1.2535724e-05 0)
(4.0919206e-09 -1.2536296e-05 0)
(1.5982857e-09 -1.7131741e-06 0)
(4.1541335e-09 8.1034869e-06 0)
(-5.5912605e-10 6.1445185e-06 0)
(-9.7974608e-10 6.1457625e-06 0)
(-8.4204263e-10 8.1057342e-06 0)
(-5.5049282e-09 -1.7119669e-06 0)
(6.1239631e-10 -1.2537062e-05 0)
(-5.050098e-10 -1.2537622e-05 0)
(5.6501978e-09 -1.7133323e-06 0)
(8.239711e-10 8.1043539e-06 0)
(1.0155479e-09 6.1451711e-06 0)
(5.4083067e-10 6.1463776e-06 0)
(-3.8845583e-09 8.1065663e-06 0)
(-1.330375e-09 -1.7121565e-06 0)
(-3.8197833e-09 -1.2538347e-05 0)
(3.976406e-09 -1.25389e-05 0)
(1.3760738e-09 -1.7134974e-06 0)
(3.986399e-09 8.1052084e-06 0)
(-5.7097034e-10 6.1457971e-06 0)
(-9.6187265e-10 6.1469777e-06 0)
(-6.8653169e-10 8.107353e-06 0)
(-5.2607273e-09 -1.7123242e-06 0)
(7.2190489e-10 -1.2539597e-05 0)
(-6.0015506e-10 -1.2540139e-05 0)
(5.4156433e-09 -1.7136425e-06 0)
(6.7303725e-10 8.1060206e-06 0)
(9.976136e-10 6.1464079e-06 0)
(5.5251567e-10 6.1475513e-06 0)
(-3.7210817e-09 8.1081283e-06 0)
(-1.1083384e-09 -1.7125028e-06 0)
(-3.6960009e-09 -1.2540799e-05 0)
(3.8647449e-09 -1.2541332e-05 0)
(1.1630256e-09 -1.7137951e-06 0)
(3.8260713e-09 8.1068211e-06 0)
(-5.8229667e-10 6.1469931e-06 0)
(-9.4492378e-10 6.1481105e-06 0)
(-5.3890827e-10 8.108861e-06 0)
(-5.0293728e-09 -1.7126612e-06 0)
(8.2471173e-10 -1.2541966e-05 0)
(-6.924065e-10 -1.2542488e-05 0)
(5.1912162e-09 -1.7139282e-06 0)
(5.2880228e-10 8.1075809e-06 0)
(9.8053959e-10 6.147564e-06 0)
(5.6361634e-10 6.1486448e-06 0)
(-3.5661087e-09 8.1095826e-06 0)
(-8.9810648e-10 -1.7128292e-06 0)
(-3.5798149e-09 -1.2543088e-05 0)
(3.7570646e-09 -1.2543599e-05 0)
(9.5918725e-10 -1.7140691e-06 0)
(3.6731378e-09 8.1083297e-06 0)
(-5.9310543e-10 6.1481104e-06 0)
(-9.2887886e-10 6.1491652e-06 0)
(-3.9900786e-10 8.1102642e-06 0)
(-4.8105653e-09 -1.7129785e-06 0)
(9.2106714e-10 -1.2544177e-05 0)
(-7.8163387e-10 -1.2544677e-05 0)
(4.9768986e-09 -1.714191e-06 0)
(3.9122973e-10 8.1090393e-06 0)
(9.643167e-10 6.1486433e-06 0)
(5.7414864e-10 6.1496622e-06 0)
(-3.4194237e-09 8.1109349e-06 0)
(-6.9934796e-10 -1.713136e-06 0)
(-3.470922e-09 -1.2545223e-05 0)
(3.6534554e-09 -1.2545711e-05 0)
(7.6451355e-10 -1.714321e-06 0)
(3.5275154e-09 8.1097389e-06 0)
(-6.0340326e-10 6.1491527e-06 0)
(-9.1371098e-10 6.1501459e-06 0)
(-2.6660058e-10 8.1115683e-06 0)
(-4.6039033e-09 -1.7132764e-06 0)
(1.011275e-09 -1.2546237e-05 0)
(-8.6774146e-10 -1.2546714e-05 0)
(4.7725814e-09 -1.7144327e-06 0)
(2.6022e-10 8.1104007e-06 0)
(9.4892846e-10 6.1496493e-06 0)
(5.8413315e-10 6.1506077e-06 0)
(-3.2807501e-09 8.1121909e-06 0)
(-5.116432e-10 -1.713424e-06 0)
(-3.3689705e-09 -1.254721e-05 0)
(3.553968e-09 -1.2547675e-05 0)
(5.7887557e-10 -1.7145525e-06 0)
(3.3890597e-09 8.111053e-06 0)
(-6.1320212e-10 6.1501235e-06 0)
(-8.9938833e-10 6.1510567e-06 0)
(-1.4140369e-10 8.1127788e-06 0)
(-4.4089048e-09 -1.7135557e-06 0)
(1.0956759e-09 -1.2548153e-05 0)
(-9.5067074e-10 -1.2548607e-05 0)
(4.5780728e-09 -1.7146546e-06 0)
(1.3561852e-10 8.1116693e-06 0)
(9.3435243e-10 6.1505856e-06 0)
(5.9359408e-10 6.1514851e-06 0)
(-3.1497629e-09 8.1133561e-06 0)
(-3.3450459e-10 -1.7136935e-06 0)
(-3.2735763e-09 -1.2549058e-05 0)
(3.458613e-09 -1.2549499e-05 0)
(4.0206988e-10 -1.7147651e-06 0)
(3.2575729e-09 8.1122768e-06 0)
(-6.2251843e-10 6.1510264e-06 0)
(-8.8587513e-10 6.1519015e-06 0)
(-2.3093615e-11 8.113901e-06 0)
(-4.225027e-09 -1.7138169e-06 0)
(1.1746348e-09 -1.2549933e-05 0)
(-1.0304005e-09 -1.2550364e-05 0)
(4.3931093e-09 -1.7148584e-06 0)
(1.7223366e-11 8.1128498e-06 0)
(9.2056104e-10 6.1514558e-06 0)
(6.0255856e-10 6.1522984e-06 0)
(-3.0261004e-09 8.1144356e-06 0)
(-1.6739396e-10 -1.7139453e-06 0)
(-3.1843356e-09 -1.2550774e-05 0)
(3.3673623e-09 -1.2551191e-05 0)
(2.3382775e-10 -1.7149601e-06 0)
(3.1328121e-09 8.1134145e-06 0)
(-6.3137239e-10 6.1518649e-06 0)
(-8.7313262e-10 6.1526838e-06 0)
(8.8684228e-11 8.11494e-06 0)
(-4.0516834e-09 -1.7140606e-06 0)
(1.2485293e-09 -1.2551585e-05 0)
(-1.1069453e-09 -1.2551993e-05 0)
(4.2173655e-09 -1.7150453e-06 0)
(-9.520673e-11 8.1139463e-06 0)
(9.0752285e-10 6.1522632e-06 0)
(6.1105587e-10 6.153051e-06 0)
(-2.9093738e-09 8.1154342e-06 0)
(-9.7376764e-12 -1.71418e-06 0)
(-3.1008347e-09 -1.2552364e-05 0)
(3.2801519e-09 -1.2552758e-05 0)
(7.3825579e-11 -1.7151388e-06 0)
(3.0144981e-09 8.1144704e-06 0)
(-6.3978711e-10 6.1526422e-06 0)
(-8.6112011e-10 6.1534071e-06 0)
(1.9430635e-10 8.1159004e-06 0)
(-3.888258e-09 -1.7142874e-06 0)
(1.3177414e-09 -1.2553114e-05 0)
(-1.1803534e-09 -1.2553499e-05 0)
(4.050465e-09 -1.7152165e-06 0)
(-2.0194508e-10 8.114963e-06 0)
(8.9520319e-10 6.153011e-06 0)
(6.1911681e-10 6.1537463e-06 0)
(-2.7991763e-09 8.1163567e-06 0)
(1.3906074e-10 -1.7143982e-06 0)
(-3.022659e-09 -1.2553834e-05 0)
(3.1968853e-09 -1.2554206e-05 0)
(-7.8305881e-11 -1.7153025e-06 0)
(2.9023224e-09 8.1154485e-06 0)
(-6.4778824e-10 6.1533614e-06 0)
(-8.4979558e-10 6.1540748e-06 0)
(2.9416335e-10 8.1167868e-06 0)
(-3.7341177e-09 -1.714498e-06 0)
(1.3826512e-09 -1.2554528e-05 0)
(-1.250703e-09 -1.2554891e-05 0)
(3.8919902e-09 -1.7153732e-06 0)
(-3.0329001e-10 8.115904e-06 0)
(8.8356521e-10 6.1537022e-06 0)
(6.2677325e-10 6.1543874e-06 0)
(-2.6950905e-09 8.1172072e-06 0)
(2.7960967e-10 -1.7146004e-06 0)
(-2.9493988e-09 -1.2555193e-05 0)
(3.1174375e-09 -1.2555542e-05 0)
(-2.2297209e-10 -1.7154521e-06 0)
(2.7959546e-09 8.1163527e-06 0)
(-6.5540304e-10 6.1540256e-06 0)
(-8.3911626e-10 6.1546899e-06 0)
(3.8865371e-10 8.1176033e-06 0)
(-3.5886221e-09 -1.714693e-06 0)
(1.4436312e-09 -1.2555831e-05 0)
(-1.3180992e-09 -1.2556173e-05 0)
(3.7414915e-09 -1.7155164e-06 0)
(-3.9955859e-10 8.1167728e-06 0)
(8.7257049e-10 6.1543399e-06 0)
(6.3405745e-10 6.1549774e-06 0)
(-2.5966941e-09 8.1179898e-06 0)
(4.1252068e-10 -1.7147874e-06 0)
(-2.8806539e-09 -1.2556444e-05 0)
(3.0416593e-09 -1.2556772e-05 0)
(-3.6060637e-10 -1.7155887e-06 0)
(2.6950485e-09 8.1171866e-06 0)
(-6.6266002e-10 6.1546376e-06 0)
(-8.2903951e-10 6.1552551e-06 0)
(4.7817813e-10 8.1183538e-06 0)
(-3.4511322e-09 -1.7148731e-06 0)
(1.5010429e-09 -1.2557031e-05 0)
(-1.3826696e-09 -1.2557353e-05 0)
(3.5984957e-09 -1.715647e-06 0)
(-4.9108115e-10 8.1175732e-06 0)
(8.6217968e-10 6.1549266e-06 0)
(6.4100192e-10 6.1555189e-06 0)
(-2.5035659e-09 8.1187082e-06 0)
(5.3840117e-10 -1.7149598e-06 0)
(-2.8160379e-09 -1.2557593e-05 0)
(2.969381e-09 -1.2557902e-05 0)
(-4.9166195e-10 -1.7157131e-06 0)
(2.5992475e-09 8.1179537e-06 0)
(-6.6958851e-10 6.1551999e-06 0)
(-8.1952285e-10 6.1557732e-06 0)
(5.6313495e-10 8.1190417e-06 0)
(-3.3210172e-09 -1.7150387e-06 0)
(1.5552338e-09 -1.2558131e-05 0)
(-1.4445609e-09 -1.2558434e-05 0)
(3.4625144e-09 -1.7157658e-06 0)
(-5.7819583e-10 8.1183084e-06 0)
(8.523531e-10 6.155465e-06 0)
(6.476389e-10 6.1560145e-06 0)
(-2.4152894e-09 8.1193657e-06 0)
(6.5784847e-10 -1.7151181e-06 0)
(-2.7551804e-09 -1.2558647e-05 0)
(2.9004173e-09 -1.2558937e-05 0)
(-6.166049e-10 -1.7158261e-06 0)
(2.5081904e-09 8.1186572e-06 0)
(-6.7621823e-10 6.1557151e-06 0)