/*--------------------------------*- C++ -*----------------------------------*\
| =========                 |                                                 |
| \\      /  F ield         | OpenFOAM: The Open Source CFD Toolbox           |
|  \\    /   O peration     | Version:  5.x                                   |
|   \\  /    A nd           | Web:      www.OpenFOAM.org                      |
|    \\/     M anipulation  |                                                 |
\*---------------------------------------------------------------------------*/
FoamFile
{
    version     2.0;
    format      ascii;
    class       volVectorField;
    location    "7";
    object      U_0;
}
// * * * * * * * * * * * * * * * * * * * * * * * * * * * * * * * * * * * * * //

dimensions      [0 1 -1 0 0 0 0];

internalField   nonuniform List<vector> 
1920
(
(-0.00037676054 -0.0034628058 0)
(-0.00068712013 -0.0039251441 0)
(-0.0003737219 -0.0038939795 0)
(-0.00011734693 -0.0038905137 0)
(0.00011734724 -0.0038905137 0)
(0.00037372203 -0.0038939794 0)
(0.00068712001 -0.003925144 0)
(0.00037676045 -0.0034628056 0)
(-0.0005200934 -0.0032076314 0)
(-0.0011327877 -0.0040335489 0)
(-0.00072317257 -0.0040869566 0)
(-0.00024537539 -0.004089387 0)
(0.00024537597 -0.004089387 0)
(0.00072317284 -0.0040869566 0)
(0.0011327876 -0.0040335487 0)
(0.00052009337 -0.0032076309 0)
(-0.00043556045 -0.0027956865 0)
(-0.0011199995 -0.0040309279 0)
(-0.00080800385 -0.0042920121 0)
(-0.00029028813 -0.0043526388 0)
(0.00029028887 -0.0043526387 0)
(0.00080800422 -0.004292012 0)
(0.0011199996 -0.0040309277 0)
(0.00043556049 -0.0027956862 0)
(-0.00032285651 -0.0023989137 0)
(-0.0009489731 -0.0039611542 0)
(-0.00075238192 -0.0044737295 0)
(-0.0002827053 -0.0046283773 0)
(0.00028270611 -0.0046283772 0)
(0.00075238238 -0.0044737296 0)
(0.00094897325 -0.003961154 0)
(0.00032285659 -0.0023989135 0)
(-0.00022968494 -0.002093745 0)
(-0.00074541204 -0.0038717462 0)
(-0.00063716631 -0.0046139639 0)
(-0.00024797215 -0.0048749051 0)
(0.00024797292 -0.0048749052 0)
(0.0006371668 -0.004613964 0)
(0.00074541228 -0.0038717461 0)
(0.00022968503 -0.002093745 0)
(-0.00015894664 -0.001874088 0)
(-0.00055827539 -0.0037862683 0)
(-0.00050766647 -0.0047150807 0)
(-0.00020349021 -0.0050773921 0)
(0.00020349088 -0.0050773921 0)
(0.00050766695 -0.0047150808 0)
(0.0005582757 -0.0037862681 0)
(0.00015894676 -0.001874088 0)
(-0.00010735469 -0.0017186577 0)
(-0.00040398127 -0.0037131373 0)
(-0.00038733773 -0.0047853715 0)
(-0.00015905586 -0.0052354222 0)
(0.00015905638 -0.0052354223 0)
(0.00038733818 -0.0047853715 0)
(0.00040398163 -0.0037131372 0)
(0.00010735482 -0.0017186576 0)
(-7.0997886e-05 -0.0016104303 0)
(-0.00028477793 -0.0036545012 0)
(-0.00028574138 -0.0048329709 0)
(-0.00011993171 -0.0053542917 0)
(0.00011993208 -0.0053542917 0)
(0.00028574177 -0.0048329708 0)
(0.00028477831 -0.0036545009 0)
(7.0998026e-05 -0.0016104302 0)
(-4.6167011e-05 -0.0015365476 0)
(-0.00019639831 -0.0036096592 0)
(-0.00020525298 -0.0048644965 0)
(-8.7708604e-05 -0.0054410734 0)
(8.7708825e-05 -0.0054410733 0)
(0.00020525331 -0.0048644963 0)
(0.00019639869 -0.003609659 0)
(4.6167164e-05 -0.0015365475 0)
(-2.9524098e-05 -0.0014870447 0)
(-0.0001329609 -0.0035766042 0)
(-0.00014403736 -0.0048849579 0)
(-6.2640204e-05 -0.0055028566 0)
(6.2640296e-05 -0.0055028566 0)
(0.00014403761 -0.0048849576 0)
(0.00013296126 -0.0035766039 0)
(2.9524246e-05 -0.0014870445 0)
(-1.8596692e-05 -0.0014544279 0)
(-8.8427264e-05 -0.0035529354 0)
(-9.910172e-05 -0.0048979937 0)
(-4.3714845e-05 -0.0055458929 0)
(4.3714818e-05 -0.0055458928 0)
(9.9101901e-05 -0.0048979934 0)
(8.8427594e-05 -0.003552935 0)
(1.8596841e-05 -0.0014544278 0)
(-1.1501976e-05 -0.0014332729 0)
(-5.786098e-05 -0.003536397 0)
(-6.688035e-05 -0.0049061424 0)
(-2.9957276e-05 -0.0055752894 0)
(2.9957156e-05 -0.0055752893 0)
(6.6880459e-05 -0.004906142 0)
(5.7861269e-05 -0.0035363966 0)
(1.1502112e-05 -0.0014332728 0)
(-6.9889099e-06 -0.001419774 0)
(-3.7203729e-05 -0.0035250868 0)
(-4.4361306e-05 -0.0049111369 0)
(-2.0116764e-05 -0.0055950024 0)
(2.0116573e-05 -0.0055950022 0)
(4.4361342e-05 -0.0049111365 0)
(3.7203967e-05 -0.0035250864 0)
(6.9890337e-06 -0.0014197738 0)
(-4.1463931e-06 -0.0014113076 0)
(-2.3514137e-05 -0.0035175074 0)
(-2.8879562e-05 -0.0049141283 0)
(-1.328944e-05 -0.0056079867 0)
(1.3289188e-05 -0.0056079866 0)
(2.8879544e-05 -0.0049141279 0)
(2.351432e-05 -0.003517507 0)
(4.1465044e-06 -0.0014113074 0)
(-2.3978715e-06 -0.0014061006 0)
(-1.4562963e-05 -0.0035125262 0)
(-1.8466583e-05 -0.004915873 0)
(-8.6019459e-06 -0.0056163836 0)
(8.6016589e-06 -0.0056163834 0)
(1.8466503e-05 -0.0049158727 0)
(1.4563098e-05 -0.0035125259 0)
(2.3979615e-06 -0.0014061005 0)
(-1.335339e-06 -0.0014029688 0)
(-8.8242373e-06 -0.0035093185 0)
(-1.1561694e-05 -0.0049168548 0)
(-5.4700146e-06 -0.00562171 0)
(5.469691e-06 -0.0056217099 0)
(1.1561582e-05 -0.0049168545 0)
(8.8243179e-06 -0.0035093182 0)
(1.3354207e-06 -0.0014029687 0)
(-7.0864452e-07 -0.0014011371 0)
(-5.1990741e-06 -0.0035072958 0)
(-7.0786423e-06 -0.0049173823 0)
(-3.3977939e-06 -0.0056250166 0)
(3.3974583e-06 -0.0056250165 0)
(7.0784812e-06 -0.004917382 0)
(5.1991209e-06 -0.0035072956 0)
(7.0870333e-07 -0.001401137 0)
(-3.4686061e-07 -0.0014001028 0)
(-2.9597698e-06 -0.0035060516 0)
(-4.2132877e-06 -0.0049176445 0)
(-2.0616255e-06 -0.0056270194 0)
(2.0612807e-06 -0.0056270193 0)
(4.2131134e-06 -0.0049176444 0)
(2.9597752e-06 -0.0035060515 0)
(3.4691571e-07 -0.0014001028 0)
(-1.4686542e-07 -0.0013995477 0)
(-1.604687e-06 -0.0035053068 0)
(-2.4233899e-06 -0.0049177594 0)
(-1.2116298e-06 -0.0056281957 0)
(1.211289e-06 -0.0056281957 0)
(2.4231921e-06 -0.0049177594 0)
(1.6046737e-06 -0.0035053067 0)
(1.4690236e-07 -0.0013995477 0)
(-4.157655e-08 -0.0013992715 0)
(-8.0876414e-07 -0.0035048773 0)
(-1.3289964e-06 -0.0049177947 0)
(-6.851963e-07 -0.0056288603 0)
(6.8486122e-07 -0.0056288603 0)
(1.3288023e-06 -0.0049177948 0)
(8.087299e-07 -0.0035048773 0)
(4.1612234e-08 -0.0013992715 0)
(9.1459186e-09 -0.0013991525 0)
(-3.5727167e-07 -0.0035046405 0)
(-6.7945036e-07 -0.0049177917 0)
(-3.6612112e-07 -0.0056292152 0)
(3.6580934e-07 -0.0056292153 0)
(6.7925592e-07 -0.0049177918 0)
(3.5723074e-07 -0.0035046407 0)
(-9.1202827e-09 -0.0013991525 0)
(2.9883734e-08 -0.001399117 0)
(-1.1412176e-07 -0.0035045196 0)
(-3.0694617e-07 -0.0049177717 0)
(-1.7949561e-07 -0.0056293891 0)
(1.7921238e-07 -0.0056293891 0)
(3.0677151e-07 -0.0049177719 0)
(1.1408241e-07 -0.0035045198 0)
(-2.9859311e-08 -0.0013991171 0)
(3.4907784e-08 -0.0013991227 0)
(7.2823358e-09 -0.0035044645 0)
(-1.0418668e-07 -0.0049177475 0)
(-7.3962347e-08 -0.0056294607 0)
(7.3713342e-08 -0.0056294609 0)
(1.0403704e-07 -0.0049177477 0)
(-7.3201687e-09 -0.0035044648 0)
(-3.4884888e-08 -0.0013991229 0)
(3.2664355e-08 -0.0013991456 0)
(5.9307335e-08 -0.003504446 0)
(-1.0375316e-09 -0.0049177239 0)
(-1.8659039e-08 -0.0056294785 0)
(1.8462013e-08 -0.0056294786 0)
(9.1644104e-10 -0.0049177243 0)
(-5.9324808e-08 -0.0035044464 0)
(-3.2644278e-08 -0.0013991458 0)
(2.7272592e-08 -0.0013991731 0)
(7.5007282e-08 -0.0035044457 0)
(4.3905355e-08 -0.0049177041 0)
(8.9215396e-09 -0.0056294699 0)
(-9.0679824e-09 -0.0056294702 0)
(-4.3980563e-08 -0.0049177044 0)
(-7.5018216e-08 -0.0035044461 0)
(-2.7247304e-08 -0.0013991733 0)
(2.161369e-08 -0.001399199 0)
(7.1727303e-08 -0.0035044536 0)
(5.8914868e-08 -0.004917688 0)
(1.8947671e-08 -0.0056294511 0)
(-1.9029892e-08 -0.0056294512 0)
(-5.8953483e-08 -0.0049176885 0)
(-7.1705349e-08 -0.0035044541 0)
(-2.1593104e-08 -0.0013991993 0)
(1.6070894e-08 -0.001399221 0)
(6.1694434e-08 -0.003504464 0)
(5.7024969e-08 -0.004917676 0)
(2.204702e-08 -0.0056294299 0)
(-2.2071568e-08 -0.0056294301 0)
(-5.7007415e-08 -0.0049176765 0)
(-6.1664473e-08 -0.0035044646 0)
(-1.6041269e-08 -0.0013992212 0)
(1.1870558e-08 -0.0013992382 0)
(4.8600914e-08 -0.0035044743 0)
(4.9845003e-08 -0.0049176669 0)
(1.9338767e-08 -0.0056294105 0)
(-1.9294198e-08 -0.0056294107 0)
(-4.9789455e-08 -0.0049176676 0)
(-4.8533458e-08 -0.0035044748 0)
(-1.1847091e-08 -0.0013992385 0)
(8.1670518e-09 -0.0013992512 0)
(3.72838e-08 -0.003504483 0)
(3.911195e-08 -0.0049176606 0)
(1.6919536e-08 -0.0056293943 0)
(-1.6817945e-08 -0.0056293946 0)
(-3.9000042e-08 -0.0049176611 0)
(-3.7209536e-08 -0.0035044836 0)
(-8.1334945e-09 -0.0013992515 0)
(5.8280188e-09 -0.0013992606 0)
(2.6642201e-08 -0.0035044899 0)
(3.0371238e-08 -0.004917656 0)
(1.2299757e-08 -0.0056293817 0)
(-1.213401e-08 -0.0056293819 0)
(-3.0225554e-08 -0.0049176567 0)
(-2.6532622e-08 -0.0035044905 0)
(-5.8012007e-09 -0.0013992609 0)
(3.6950663e-09 -0.0013992672 0)
(1.9240174e-08 -0.003504495 0)
(2.134099e-08 -0.004917653 0)
(9.9918829e-09 -0.0056293723 0)
(-9.7780644e-09 -0.0056293725 0)
(-2.1147131e-08 -0.0049176536 0)
(-1.9126762e-08 -0.0035044957 0)
(-3.6591556e-09 -0.0013992675 0)
(2.6325348e-09 -0.0013992717 0)
(1.2593834e-08 -0.0035044987 0)
(1.5628581e-08 -0.0049176509 0)
(6.2633345e-09 -0.0056293655 0)
(-5.9987592e-09 -0.0056293657 0)
(-1.5409593e-08 -0.0049176515 0)
(-1.2451974e-08 -0.0035044993 0)
(-2.6031269e-09 -0.0013992719 0)
(1.4662719e-09 -0.0013992746 0)
(8.7484378e-09 -0.0035045012 0)
(9.7926145e-09 -0.0049176494 0)
(5.1235245e-09 -0.0056293608 0)
(-4.825821e-09 -0.0056293611 0)
(-9.539244e-09 -0.00491765 0)
(-8.6067283e-09 -0.0035045018 0)
(-1.4299156e-09 -0.0013992748 0)
(1.1140142e-09 -0.0013992763 0)
(5.0090542e-09 -0.0035045028 0)
(6.9499047e-09 -0.0049176485 0)
(2.5341397e-09 -0.0056293577 0)
(-2.2038801e-09 -0.0056293579 0)
(-6.6825548e-09 -0.004917649 0)
(-4.8480795e-09 -0.0035045033 0)
(-1.0833271e-09 -0.0013992766 0)
(4.5900569e-10 -0.0013992774 0)
(3.4021215e-09 -0.0035045037 0)
(3.4962464e-09 -0.0049176479 0)
(2.3533467e-09 -0.0056293557 0)
(-2.0072753e-09 -0.0056293559 0)
(-3.2104671e-09 -0.0049176484 0)
(-3.245383e-09 -0.0035045042 0)
(-4.2388028e-10 -0.0013992776 0)
(4.5466366e-10 -0.0013992779 0)
(1.3454932e-09 -0.0035045041 0)
(2.4858232e-09 -0.0049176475 0)
(5.6045908e-10 -0.0056293545 0)
(-2.0081623e-10 -0.0056293547 0)
(-2.197323e-09 -0.0049176479 0)
(-1.17883e-09 -0.0035045046 0)
(-4.2404253e-10 -0.0013992781 0)
(4.4569499e-11 -0.0013992781 0)
(9.3196208e-10 -0.0035045042 0)
(4.3061762e-10 -0.0049176471 0)
(9.5483984e-10 -0.0056293539 0)
(-5.9573452e-10 -0.0056293541 0)
(-1.3869009e-10 -0.0049176476 0)
(-7.7293443e-10 -0.0035045046 0)
(-1.1847382e-11 -0.0013992783 0)
(1.9318185e-10 -0.0013992781 0)
(-2.6534011e-10 -0.003504504 0)
(4.0402109e-10 -0.0049176469 0)
(-3.8116859e-10 -0.0056293536 0)
(7.373156e-10 -0.0056293538 0)
(-1.1879764e-10 -0.0049176473 0)
(4.2631162e-10 -0.0035045044 0)
(-1.6368264e-10 -0.0013992782 0)
(-1.0785753e-10 -0.0013992779 0)
(-1.115552e-10 -0.0035045038 0)
(-9.2778337e-10 -0.0049176468 0)
(3.0501109e-10 -0.0056293536 0)
(3.7657846e-11 -0.0056293538 0)
(1.2044713e-09 -0.0049176471 0)
(2.6270393e-10 -0.0035045041 0)
(1.3757156e-10 -0.001399278 0)
(9.9923177e-11 -0.0013992776 0)
(-9.0658019e-10 -0.0035045034 0)
(-4.8586604e-10 -0.0049176466 0)
(-7.9409763e-10 -0.0056293537 0)
(1.121718e-09 -0.0056293539 0)
(7.4942551e-10 -0.0049176469 0)
(1.053828e-09 -0.0035045037 0)
(-7.217539e-11 -0.0013992778 0)
(-1.5468111e-10 -0.0013992773 0)
(-5.1059846e-10 -0.003504503 0)
(-1.4729406e-09 -0.0049176465 0)
(1.9788694e-11 -0.005629354 0)
(2.8604353e-10 -0.0056293541 0)
(1.7199709e-09 -0.0049176468 0)
(6.472475e-10 -0.0035045032 0)
(1.8128102e-10 -0.0013992774 0)
(7.1101034e-11 -0.001399277 0)
(-1.1286382e-09 -0.0035045025 0)
(-8.3252812e-10 -0.0049176464 0)
(-9.6135639e-10 -0.0056293543 0)
(1.2450851e-09 -0.0056293544 0)
(1.0633312e-09 -0.0049176466 0)
(1.2578037e-09 -0.0035045027 0)
(-4.5312471e-11 -0.0013992771 0)
(-1.6333279e-10 -0.0013992767 0)
(-6.4302021e-10 -0.003504502 0)
(-1.6628258e-09 -0.0049176463 0)
(-1.0277112e-10 -0.0056293546 0)
(3.6104394e-10 -0.0056293547 0)
(1.873e-09 -0.0049176465 0)
(7.6211693e-10 -0.0035045022 0)
(1.8707493e-10 -0.0013992767 0)
(6.3928768e-11 -0.0013992763 0)
(-1.1849931e-09 -0.0035045015 0)
(-9.5153872e-10 -0.0049176462 0)
(-1.0228788e-09 -0.005629355 0)
(1.2565506e-09 -0.0056293551 0)
(1.1453488e-09 -0.0049176463 0)
(1.2949635e-09 -0.0035045016 0)
(-3.9977821e-11 -0.0013992764 0)
(-1.6022469e-10 -0.001399276 0)
(-6.752358e-10 -0.003504501 0)
(-1.7096502e-09 -0.004917646 0)
(-1.5753963e-10 -0.0056293553 0)
(3.6593286e-10 -0.0056293554 0)
(1.8818999e-09 -0.0049176462 0)
(7.7666587e-10 -0.0035045011 0)
(1.8157523e-10 -0.001399276 0)
(6.253969e-11 -0.0013992756 0)
(-1.1822683e-09 -0.0035045004 0)
(-9.8265297e-10 -0.004917646 0)
(-1.041088e-09 -0.0056293557 0)
(1.2258367e-09 -0.0056293558 0)
(1.1405997e-09 -0.0049176461 0)
(1.2743271e-09 -0.0035045006 0)
(-4.0101741e-11 -0.0013992757 0)
(-1.545245e-10 -0.0013992753 0)
(-6.7398516e-10 -0.0035044999 0)
(-1.7031775e-09 -0.0049176458 0)
(-1.8484025e-10 -0.0056293561 0)
(3.4714365e-10 -0.0056293561 0)
(1.8407904e-09 -0.004917646 0)
(7.5964112e-10 -0.0035045 0)
(1.7402344e-10 -0.0013992753 0)
(6.1881406e-11 -0.001399275 0)
(-1.1610578e-09 -0.0035044994 0)
(-9.8223457e-10 -0.0049176457 0)
(-1.0412476e-09 -0.0056293564 0)
(1.1830169e-09 -0.0056293564 0)
(1.10892e-09 -0.0049176458 0)
(1.2379191e-09 -0.0035044995 0)
(-4.054977e-11 -0.001399275 0)
(-1.4885243e-10 -0.0013992746 0)
(-6.6315511e-10 -0.0035044989 0)
(-1.677865e-09 -0.0049176456 0)
(-2.0015829e-10 -0.0056293568 0)
(3.2375342e-10 -0.0056293568 0)
(1.7866002e-09 -0.0049176457 0)
(7.3599027e-10 -0.003504499 0)
(1.6701305e-10 -0.0013992747 0)
(6.077294e-11 -0.0013992743 0)
(-1.1349201e-09 -0.0035044984 0)
(-9.7068593e-10 -0.0049176455 0)
(-1.0326565e-09 -0.0056293571 0)
(1.139799e-09 -0.0056293571 0)
(1.072389e-09 -0.0049176456 0)
(1.1998696e-09 -0.0035044985 0)
(-4.0151883e-11 -0.0013992743 0)
(-1.4366615e-10 -0.001399274 0)
(-6.4996418e-10 -0.0035044979 0)
(-1.6454948e-09 -0.0049176454 0)
(-2.0888694e-10 -0.0056293574 0)
(3.0255478e-10 -0.0056293575 0)
(1.7319768e-09 -0.0049176455 0)
(7.1321593e-10 -0.003504498 0)
(1.6091382e-10 -0.001399274 0)
(5.91892e-11 -0.0013992736 0)
(-1.1075197e-09 -0.0035044974 0)
(-9.5443472e-10 -0.0049176453 0)
(-1.0185556e-09 -0.0056293577 0)
(1.0999288e-09 -0.0056293578 0)
(1.037708e-09 -0.0049176453 0)
(1.163779e-09 -0.0035044975 0)
(-3.8951779e-11 -0.0013992737 0)
(-1.3887159e-10 -0.0013992733 0)
(-6.3596227e-10 -0.0035044969 0)
(-1.6095743e-09 -0.0049176451 0)
(-2.1286839e-10 -0.0056293581 0)
(2.8519633e-10 -0.0056293581 0)
(1.6801509e-09 -0.0049176452 0)
(6.9262258e-10 -0.003504497 0)
(1.55517e-10 -0.0013992734 0)
(5.7326767e-11 -0.001399273 0)
(-1.0794638e-09 -0.0035044964 0)
(-9.3518398e-10 -0.004917645 0)
(-1.0002487e-09 -0.0056293584 0)
(1.0639561e-09 -0.0056293585 0)
(1.005943e-09 -0.0049176451 0)
(1.1298056e-09 -0.0035044965 0)
(-3.7240163e-11 -0.001399273 0)
(-1.343247e-10 -0.0013992727 0)
(-6.2118042e-10 -0.003504496 0)
(-1.5710689e-09 -0.0049176449 0)
(-2.1294586e-10 -0.0056293587 0)
(2.7137824e-10 -0.0056293588 0)
(1.6311512e-09 -0.004917645 0)
(6.7371039e-10 -0.0035044961 0)
(1.5056393e-10 -0.0013992727 0)
(5.5347086e-11 -0.0013992724 0)
(-1.0507053e-09 -0.0035044955 0)
(-9.1337924e-10 -0.0049176448 0)
(-9.7857458e-10 -0.005629359 0)
(1.0313101e-09 -0.0056293591 0)
(9.7644527e-10 -0.0049176449 0)
(1.0972874e-09 -0.0035044956 0)
(-3.5273316e-11 -0.0013992724 0)
(-1.2994055e-10 -0.0013992721 0)
(-6.0546654e-10 -0.003504495 0)
(-1.5303914e-09 -0.0049176447 0)
(-2.0978251e-10 -0.0056293594 0)
(2.6021498e-10 -0.0056293594 0)
(1.5841937e-09 -0.0049176448 0)
(6.5570495e-10 -0.0035044951 0)
(1.4587118e-10 -0.0013992721 0)
(5.3342834e-11 -0.0013992718 0)
(-1.0212227e-09 -0.0035044946 0)
(-8.8929808e-10 -0.0049176446 0)
(-9.5430331e-10 -0.0056293596 0)
(1.0011606e-09 -0.0056293597 0)
(9.4828274e-10 -0.0049176447 0)
(1.0655788e-09 -0.0035044947 0)
(-3.3224607e-11 -0.0013992718 0)
(-1.2568781e-10 -0.0013992715 0)
(-5.887924e-10 -0.0035044941 0)
(-1.4879414e-09 -0.0049176444 0)
(-2.0402747e-10 -0.00562936 0)
(2.507825e-10 -0.00562936 0)
(1.538495e-09 -0.0049176446 0)
(6.3799178e-10 -0.0035044942 0)
(1.4133253e-10 -0.0013992715 0)
(5.135887e-11 -0.0013992712 0)
(-9.9112052e-10 -0.0035044937 0)
(-8.6328044e-10 -0.0049176443 0)
(-9.2817099e-10 -0.0056293602 0)
(9.7274911e-10 -0.0056293603 0)
(9.2068526e-10 -0.0049176445 0)
(1.0342413e-09 -0.0035044938 0)
(-3.119926e-11 -0.0013992713 0)
(-1.2156397e-10 -0.0013992709 0)
(-5.7124983e-10 -0.0035044932 0)
(-1.4441684e-09 -0.0049176442 0)
(-1.9629139e-10 -0.0056293605 0)
(2.4231303e-10 -0.0056293606 0)
(1.4934884e-09 -0.0049176444 0)
(6.2017812e-10 -0.0035044934 0)
(1.3689478e-10 -0.001399271 0)
(4.9416085e-11 -0.0013992706 0)
(-9.6058129e-10 -0.0035044928 0)
(-8.3571064e-10 -0.0049176441 0)
(-9.0083477e-10 -0.0056293608 0)
(9.4549243e-10 -0.0056293609 0)
(8.9312989e-10 -0.0049176443 0)
(1.0030346e-09 -0.0035044929 0)
(-2.9257716e-11 -0.0013992707 0)
(-1.1757691e-10 -0.0013992704 0)
(-5.5298976e-10 -0.0035044924 0)
(-1.3995246e-09 -0.004917644 0)
(-1.8710167e-10 -0.0056293611 0)
(2.3424013e-10 -0.0056293612 0)
(1.4488347e-09 -0.0049176442 0)
(6.0205227e-10 -0.0035044925 0)
(1.3253649e-10 -0.0013992704 0)
(4.7525686e-11 -0.0013992701 0)
(-9.2981036e-10 -0.0035044919 0)
(-8.0696461e-10 -0.0049176439 0)
(-8.7284024e-10 -0.0056293614 0)
(9.1899086e-10 -0.0056293615 0)
(8.6531257e-10 -0.0049176441 0)
(9.7186312e-10 -0.0035044921 0)
(-2.7433241e-11 -0.0013992702 0)
(-1.1373524e-10 -0.0013992698 0)
(-5.3417621e-10 -0.0035044916 0)
(-1.3544219e-09 -0.0049176438 0)
(-1.7688232e-10 -0.0056293617 0)
(2.2618278e-10 -0.0056293618 0)
(1.4043755e-09 -0.004917644 0)
(5.8352889e-10 -0.0035044917 0)
(1.2825296e-10 -0.0013992699 0)
(4.5696465e-11 -0.0013992696 0)
(-8.9900328e-10 -0.0035044911 0)
(-7.7737803e-10 -0.0049176437 0)
(-8.4461581e-10 -0.0056293619 0)
(8.9299965e-10 -0.005629362 0)
(8.3709362e-10 -0.0049176439 0)
(9.4072515e-10 -0.0035044913 0)
(-2.574326e-11 -0.0013992696 0)
(-1.1004473e-10 -0.0013992693 0)
(-5.1496346e-10 -0.0035044908 0)
(-1.3092137e-09 -0.0049176436 0)
(-1.6595814e-10 -0.0056293622 0)
(2.1790803e-10 -0.0056293623 0)
(1.3600787e-09 -0.0049176438 0)
(5.6460424e-10 -0.0035044909 0)
(1.2404817e-10 -0.0013992694 0)
(4.3936698e-11 -0.001399269 0)
(-8.683328e-10 -0.0035044904 0)
(-7.4723696e-10 -0.0049176436 0)
(-8.1648663e-10 -0.0056293625 0)
(8.673896e-10 -0.0056293626 0)
(8.0844631e-10 -0.0049176437 0)
(9.0967504e-10 -0.0035044906 0)
(-2.419564e-11 -0.0013992691 0)
(-1.0650748e-10 -0.0013992688 0)
(-4.9548882e-10 -0.00350449 0)
(-1.2641948e-09 -0.0049176435 0)
(-1.5457253e-10 -0.0056293628 0)
(2.0929112e-10 -0.0056293628 0)
(1.3159932e-09 -0.0049176437 0)
(5.4532375e-10 -0.0035044902 0)
(1.1992973e-10 -0.0013992689 0)
(4.2254797e-11 -0.0013992686 0)
(-8.3794705e-10 -0.0035044896 0)
(-7.167824e-10 -0.0049176434 0)
(-7.8869589e-10 -0.005629363 0)
(8.4211018e-10 -0.0056293631 0)
(7.7941586e-10 -0.0049176436 0)
(8.7879698e-10 -0.0035044898 0)
(-2.2792875e-11 -0.0013992686 0)
(-1.0312282e-10 -0.0013992683 0)
(-4.7587297e-10 -0.0035044893 0)
(-1.2196097e-09 -0.0049176433 0)
(-1.4290841e-10 -0.0056293633 0)
(2.0028055e-10 -0.0056293633 0)
(1.2722141e-09 -0.0049176435 0)
(5.2576045e-10 -0.0035044895 0)
(1.1590615e-10 -0.0013992684 0)
(4.0658299e-11 -0.0013992681 0)
(-8.079723e-10 -0.0035044889 0)
(-6.8621865e-10 -0.0049176432 0)
(-7.6142607e-10 -0.0056293635 0)
(8.1715966e-10 -0.0056293636 0)
(7.5008941e-10 -0.0049176434 0)
(8.4818784e-10 -0.0035044891 0)
(-2.1533967e-11 -0.0013992682 0)
(-9.9888093e-11 -0.0013992679 0)
(-4.5622276e-10 -0.0035044886 0)
(-1.1756622e-09 -0.0049176431 0)
(-1.3110647e-10 -0.0056293638 0)
(1.9087115e-10 -0.0056293638 0)
(1.2288585e-09 -0.0049176434 0)
(5.0600031e-10 -0.0035044888 0)
(1.1198566e-10 -0.0013992679 0)
(3.9153801e-11 -0.0013992676 0)
(-7.7851636e-10 -0.0035044882 0)
(-6.5572149e-10 -0.0049176431 0)
(-7.348155e-10 -0.005629364 0)
(7.9256314e-10 -0.0056293641 0)
(7.2057522e-10 -0.0049176433 0)
(8.1794613e-10 -0.0035044884 0)
(-2.0415789e-11 -0.0013992677 0)
(-9.6799358e-11 -0.0013992674 0)
(-4.3663322e-10 -0.0035044879 0)
(-1.1325233e-09 -0.004917643 0)
(-1.1927809e-10 -0.0056293642 0)
(1.8108548e-10 -0.0056293643 0)
(1.1860491e-09 -0.0049176432 0)
(4.8613307e-10 -0.0035044881 0)
(1.0817543e-10 -0.0013992675 0)
(3.7746422e-11 -0.0013992672 0)
(-7.496708e-10 -0.0035044876 0)
(-6.2544355e-10 -0.0049176429 0)
(-7.0897013e-10 -0.0056293645 0)
(7.6835848e-10 -0.0056293646 0)
(6.9098875e-10 -0.0049176432 0)
(7.8816539e-10 -0.0035044878 0)
(-1.9433862e-11 -0.0013992673 0)
(-9.3851804e-11 -0.001399267 0)
(-4.1718895e-10 -0.0035044873 0)
(-1.0903361e-09 -0.0049176429 0)
(-1.0751414e-10 -0.0056293647 0)
(1.7096142e-10 -0.0056293648 0)
(1.1439041e-09 -0.0049176431 0)
(4.6624657e-10 -0.0035044875 0)
(1.044814e-10 -0.0013992671 0)
(3.6439749e-11 -0.0013992668 0)
(-7.2151258e-10 -0.0035044869 0)
(-5.9551752e-10 -0.0049176428 0)
(-6.8397097e-10 -0.0056293649 0)
(7.4458745e-10 -0.005629365 0)
(6.6144443e-10 -0.004917643 0)
(7.5893056e-10 -0.0035044872 0)
(-1.8582624e-11 -0.0013992669 0)
(-9.1040336e-11 -0.0013992666 0)
(-3.9796485e-10 -0.0035044866 0)
(-1.0492186e-09 -0.0049176427 0)
(-9.588935e-11 -0.0056293652 0)
(1.6054468e-10 -0.0056293653 0)
(1.1025321e-09 -0.004917643 0)
(4.4642357e-10 -0.0035044869 0)
(1.0090801e-10 -0.0013992667 0)
(3.5235835e-11 -0.0013992664 0)
(-6.94105e-10 -0.0035044863 0)
(-5.6605724e-10 -0.0049176427 0)
(-6.598782e-10 -0.0056293654 0)
(7.2129093e-10 -0.0056293655 0)
(6.320508e-10 -0.0049176429 0)
(7.3031575e-10 -0.0035044866 0)
(-1.7855982e-11 -0.0013992665 0)
(-8.835941e-11 -0.0013992662 0)
(-3.7902556e-10 -0.0035044861 0)
(-1.0092657e-09 -0.0049176426 0)
(-8.4464935e-11 -0.0056293656 0)
(1.4988475e-10 -0.0056293657 0)
(1.0620288e-09 -0.0049176428 0)
(4.2673934e-10 -0.0035044863 0)
(9.7458455e-11 -0.0013992663 0)
(3.4135499e-11 -0.001399266 0)
(-6.6749758e-10 -0.0035044858 0)
(-5.3715839e-10 -0.0049176426 0)
(-6.367336e-10 -0.0056293658 0)
(6.9850678e-10 -0.0056293659 0)
(6.0290742e-10 -0.0049176428 0)
(7.0238367e-10 -0.003504486 0)
(-1.7247191e-11 -0.0013992661 0)
(-8.5803377e-11 -0.0013992658 0)
(-3.6042577e-10 -0.0035044855 0)
(-9.7054951e-10 -0.0049176425 0)
(-7.328927e-11 -0.005629366 0)
(1.3903232e-10 -0.0056293661 0)
(1.0224754e-09 -0.0049176427 0)
(4.0726146e-10 -0.0035044857 0)
(9.413472e-11 -0.0013992659 0)
(3.3138329e-11 -0.0013992657 0)
(-6.4172701e-10 -0.0035044852 0)
(-5.0889857e-10 -0.0049176425 0)
(-6.1456204e-10 -0.0056293662 0)
(6.7626867e-10 -0.0056293663 0)
(5.7410391e-10 -0.0049176427 0)
(6.751855e-10 -0.0035044854 0)
(-1.674917e-11 -0.0013992657 0)
(-8.3366277e-11 -0.0013992655 0)
(-3.4220986e-10 -0.003504485 0)
(-9.3312092e-10 -0.0049176424 0)
(-6.2398855e-11 -0.0056293664 0)
(1.2803839e-10 -0.0056293665 0)
(9.8393902e-10 -0.0049176426 0)
(3.8804878e-10 -0.0035044852 0)
(9.093758e-11 -0.0013992656 0)
(3.2243e-11 -0.0013992653 0)
(-6.168174e-10 -0.0035044847 0)
(-4.8133795e-10 -0.0049176424 0)
(-5.9337297e-10 -0.0056293666 0)
(6.5460612e-10 -0.0056293667 0)
(5.457192e-10 -0.0049176426 0)
(6.4876113e-10 -0.0035044849 0)
(-1.6354787e-11 -0.0013992654 0)
(-8.1042234e-11 -0.0013992651 0)
(-3.2441242e-10 -0.0035044845 0)
(-8.9701086e-10 -0.0049176423 0)
(-5.1818766e-11 -0.0056293668 0)
(1.169528e-10 -0.0056293669 0)
(9.4647282e-10 -0.0049176425 0)
(3.6915177e-10 -0.0035044847 0)
(8.7866815e-11 -0.0013992652 0)
(3.1447262e-11 -0.001399265 0)
(-5.9278149e-10 -0.0035044842 0)
(-4.5452e-10 -0.0049176423 0)
(-5.7316214e-10 -0.005629367 0)
(6.3354414e-10 -0.0056293671 0)
(5.1782133e-10 -0.0049176425 0)
(6.2314e-10 -0.0035044844 0)
(-1.6056788e-11 -0.0013992651 0)
(-7.8825375e-11 -0.0013992648 0)
(-3.0705858e-10 -0.003504484 0)
(-8.6223196e-10 -0.0049176422 0)
(-4.1564005e-11 -0.0056293672 0)
(1.0582385e-10 -0.0056293673 0)
(9.1011671e-10 -0.0049176424 0)
(3.5061251e-10 -0.0035044842 0)
(8.4921183e-11 -0.0013992649 0)
(3.0748228e-11 -0.0013992647 0)
(-5.6962161e-10 -0.0035044838 0)
(-4.2847289e-10 -0.0049176422 0)
(-5.5391316e-10 -0.0056293674 0)
(6.131032e-10 -0.0056293675 0)
(4.9046775e-10 -0.0049176424 0)
(5.9834164e-10 -0.003504484 0)
(-1.5847894e-11 -0.0013992648 0)
(-7.6709819e-11 -0.0013992645 0)
(-2.9016499e-10 -0.0035044835 0)
(-8.2878072e-10 -0.0049176422 0)
(-3.1640404e-11 -0.0056293676 0)
(9.4697221e-11 -0.0056293676 0)
(8.748981e-10 -0.0049176424 0)
(3.3246517e-10 -0.0035044837 0)
(8.2098938e-11 -0.0013992646 0)
(3.0142404e-11 -0.0013992644 0)
(-5.4733097e-10 -0.0035044833 0)
(-4.0321134e-10 -0.0049176421 0)
(-5.3559984e-10 -0.0056293677 0)
(5.9329938e-10 -0.0056293678 0)
(4.6370549e-10 -0.0049176423 0)
(5.7437674e-10 -0.0035044835 0)
(-1.5721033e-11 -0.0013992645 0)
(-7.4689849e-11 -0.0013992642 0)
(-2.7374072e-10 -0.0035044831 0)
(-7.9664e-10 -0.0049176421 0)
(-2.2046166e-11 -0.0056293679 0)
(8.3615576e-11 -0.005629368 0)
(8.4083294e-10 -0.0049176423 0)
(3.1473644e-10 -0.0035044833 0)
(7.9397508e-11 -0.0013992643 0)
(2.9625936e-11 -0.0013992641 0)
(-5.2589525e-10 -0.0035044829 0)
(-3.7873837e-10 -0.0049176421 0)
(-5.1818793e-10 -0.0056293681 0)
(5.7414417e-10 -0.0056293681 0)
(4.3757158e-10 -0.0049176422 0)
(5.5124794e-10 -0.0035044831 0)
(-1.5669325e-11 -0.0013992642 0)
(-7.2759981e-11 -0.001399264 0)
(-2.5778837e-10 -0.0035044827 0)
(-7.6578123e-10 -0.004917642 0)
(-1.2773498e-11 -0.0056293682 0)
(7.2617952e-11 -0.0056293683 0)
(8.0792678e-10 -0.0049176422 0)
(2.9744608e-10 -0.0035044829 0)
(7.6813734e-11 -0.001399264 0)
(2.9194601e-11 -0.0013992638 0)
(-5.0529384e-10 -0.0035044825 0)
(-3.5504719e-10 -0.004917642 0)
(-5.0163743e-10 -0.0056293684 0)
(5.5564453e-10 -0.0056293685 0)
(4.1209392e-10 -0.0049176422 0)
(5.2895085e-10 -0.0035044827 0)
(-1.5686263e-11 -0.0013992639 0)
(-7.0914831e-11 -0.0013992637 0)
(-2.4230504e-10 -0.0035044823 0)
(-7.3616684e-10 -0.004917642 0)
(-3.8101017e-12 -0.0056293686 0)
(6.1739188e-11 -0.0056293686 0)
(7.7617588e-10 -0.0049176421 0)
(2.8060757e-10 -0.0035044825 0)
(7.4344067e-11 -0.0013992638 0)
(2.8843948e-11 -0.0013992636 0)
(-4.8550125e-10 -0.0035044821 0)
(-3.3212343e-10 -0.0049176419 0)
(-4.8590423e-10 -0.0056293687 0)
(5.3780289e-10 -0.0056293688 0)
(3.8729181e-10 -0.0049176421 0)
(5.0747504e-10 -0.0035044823 0)
(-1.5765565e-11 -0.0013992636 0)
(-6.9149347e-11 -0.0013992634 0)
(-2.2728364e-10 -0.0035044819 0)
(-7.0775258e-10 -0.0049176419 0)
(4.8595671e-12 -0.0056293689 0)
(5.10098e-11 -0.0056293689 0)
(7.4556831e-10 -0.0049176421 0)
(2.6422883e-10 -0.0035044821 0)
(7.1984618e-11 -0.0013992635 0)
(2.8569312e-11 -0.0013992633 0)
(-4.6648845e-10 -0.0035044818 0)
(-3.0994673e-10 -0.0049176419 0)
(-4.7094188e-10 -0.005629369 0)
(5.2061753e-10 -0.0056293691 0)
(3.6317683e-10 -0.004917642 0)
(4.8680495e-10 -0.0035044819 0)
(-1.5901343e-11 -0.0013992634 0)
(-6.7458688e-11 -0.0013992632 0)
(-2.1271374e-10 -0.0035044816 0)
(-6.8048956e-10 -0.0049176419 0)
(1.3252836e-11 -0.0056293692 0)
(4.0456059e-11 -0.0056293692 0)
(7.1608511e-10 -0.004917642 0)
(2.4831295e-10 -0.0035044818 0)
(6.9731104e-11 -0.0013992633 0)
(2.8365999e-11 -0.0013992631 0)
(-4.4822381e-10 -0.0035044814 0)
(-2.8849271e-10 -0.0049176418 0)
(-4.567032e-10 -0.0056293693 0)
(5.0408268e-10 -0.0056293694 0)
(3.3975389e-10 -0.004917642 0)
(4.6692079e-10 -0.0035044816 0)
(-1.6088103e-11 -0.0013992632 0)
(-6.5838305e-11 -0.001399263 0)
(-1.9858264e-10 -0.0035044813 0)
(-6.5432572e-10 -0.0049176418 0)
(2.1387795e-11 -0.0056293694 0)
(3.0099745e-11 -0.0056293695 0)
(6.8770146e-10 -0.004917642 0)
(2.3285889e-10 -0.0035044814 0)
(6.7579198e-11 -0.0013992631 0)
(2.8229249e-11 -0.0013992629 0)
(-4.3067439e-10 -0.0035044811 0)
(-2.6773406e-10 -0.0049176418 0)
(-4.4314103e-10 -0.0056293696 0)
(4.8818885e-10 -0.0056293696 0)
(3.1702196e-10 -0.0049176419 0)
(4.4779945e-10 -0.0035044813 0)
(-1.6320677e-11 -0.0013992629 0)
(-6.4283981e-11 -0.0013992628 0)
(-1.8487603e-10 -0.003504481 0)
(-6.2920775e-10 -0.0049176418 0)
(2.9282593e-11 -0.0056293697 0)
(1.995858e-11 -0.0056293698 0)
(6.6038773e-10 -0.0049176419 0)
(2.1786222e-10 -0.0035044811 0)
(6.5524321e-11 -0.0013992628 0)
(2.8154202e-11 -0.0013992627 0)
(-4.1380656e-10 -0.0035044808 0)
(-2.4764207e-10 -0.0049176417 0)
(-4.3020947e-10 -0.0056293698 0)
(4.729233e-10 -0.0056293699 0)
(2.949752e-10 -0.0049176419 0)
(4.2941526e-10 -0.003504481 0)
(-1.659427e-11 -0.0013992627 0)
(-6.2791672e-11 -0.0013992626 0)
(-1.7157863e-10 -0.0035044807 0)
(-6.0508203e-10 -0.0049176417 0)
(3.6954497e-11 -0.00562937 0)
(1.0046297e-11 -0.00562937 0)
(6.3411074e-10 -0.0049176419 0)
(2.0331581e-10 -0.0035044808 0)
(6.3561797e-11 -0.0013992626 0)
(2.8136208e-11 -0.0013992625 0)
(-3.9758652e-10 -0.0035044805 0)
(-2.2818754e-10 -0.0049176417 0)
(-4.1786467e-10 -0.0056293701 0)
(4.5827037e-10 -0.0056293701 0)
(2.7360377e-10 -0.0049176418 0)
(4.1174089e-10 -0.0035044807 0)
(-1.6904387e-11 -0.0013992625 0)
(-6.1357563e-11 -0.0013992624 0)
(-1.5867469e-10 -0.0035044804 0)
(-5.8189581e-10 -0.0049176417 0)
(4.4419639e-11 -0.0056293702 0)
(3.7308691e-13 -0.0056293703 0)
(6.0883433e-10 -0.0049176418 0)
(1.8921049e-10 -0.0035044805 0)
(6.1687058e-11 -0.0013992624 0)
(2.8170655e-11 -0.0013992623 0)
(-3.8198116e-10 -0.0035044802 0)
(-2.0934157e-10 -0.0049176417 0)
(-4.0606486e-10 -0.0056293703 0)
(4.4421212e-10 -0.0056293704 0)
(2.5289453e-10 -0.0049176418 0)
(3.9474783e-10 -0.0035044804 0)
(-1.7246953e-11 -0.0013992623 0)
(-5.9978146e-11 -0.0013992622 0)
(-1.4614889e-10 -0.0035044801 0)
(-5.5959772e-10 -0.0049176416 0)
(5.1692641e-11 -0.0056293704 0)
(-9.0538946e-12 -0.0056293705 0)
(5.8452069e-10 -0.0049176418 0)
(1.7553537e-10 -0.0035044802 0)
(5.9895431e-11 -0.0013992623 0)
(2.8253e-11 -0.0013992621 0)
(-3.6695848e-10 -0.00350448 0)
(-1.9107615e-10 -0.0049176416 0)
(-3.9477111e-10 -0.0056293706 0)
(4.3072872e-10 -0.0056293706 0)
(2.3283221e-10 -0.0049176418 0)
(3.784069e-10 -0.0035044801 0)
(-1.7618115e-11 -0.0013992622 0)
(-5.8650108e-11 -0.001399262 0)
(-1.3398609e-10 -0.0035044799 0)
(-5.3813873e-10 -0.0049176416 0)
(5.8786384e-11 -0.0056293707 0)
(-1.8230064e-11 -0.0056293707 0)
(5.6113091e-10 -0.0049176417 0)
(1.6227872e-10 -0.00350448 0)
(5.8182356e-11 -0.0013992621 0)