/*--------------------------------*- C++ -*----------------------------------*\
| =========                 |                                                 |
| \\      /  F ield         | OpenFOAM: The Open Source CFD Toolbox           |
|  \\    /   O peration     | Version:  5.x                                   |
|   \\  /    A nd           | Web:      www.OpenFOAM.org                      |
|    \\/     M anipulation  |                                                 |
\*---------------------------------------------------------------------------*/
FoamFile
{
    version     2.0;
    format      ascii;
    class       volScalarField;
    location    "5";
    object      p;
}
// * * * * * * * * * * * * * * * * * * * * * * * * * * * * * * * * * * * * * //

dimensions      [0 2 -2 0 0 0 0];

internalField   nonuniform List<scalar> 
1920
(
-6340.4811
-6340.488
-6340.4729
-6340.4579
-6340.4579
-6340.4729
-6340.488
-6340.4811
-6340.4764
-6340.4831
-6340.4749
-6340.4649
-6340.4649
-6340.4749
-6340.4831
-6340.4764
-6340.4725
-6340.4793
-6340.4777
-6340.4725
-6340.4725
-6340.4777
-6340.4793
-6340.4725
-6340.4698
-6340.4784
-6340.481
-6340.479
-6340.479
-6340.481
-6340.4784
-6340.4698
-6340.4701
-6340.4798
-6340.4851
-6340.4851
-6340.4851
-6340.4851
-6340.4798
-6340.4701
-6340.4729
-6340.4835
-6340.4902
-6340.4915
-6340.4915
-6340.4902
-6340.4835
-6340.4729
-6340.4782
-6340.4889
-6340.4964
-6340.4984
-6340.4984
-6340.4964
-6340.4889
-6340.4782
-6340.4855
-6340.4961
-6340.5036
-6340.506
-6340.506
-6340.5036
-6340.4961
-6340.4855
-6340.4948
-6340.5045
-6340.5119
-6340.5144
-6340.5144
-6340.5119
-6340.5045
-6340.4948
-6340.5055
-6340.5143
-6340.521
-6340.5235
-6340.5235
-6340.521
-6340.5144
-6340.5055
-6340.5174
-6340.5251
-6340.531
-6340.5334
-6340.5334
-6340.531
-6340.5251
-6340.5174
-6340.5301
-6340.5367
-6340.5417
-6340.5438
-6340.5438
-6340.5417
-6340.5367
-6340.5301
-6340.5434
-6340.5488
-6340.553
-6340.5548
-6340.5548
-6340.5531
-6340.5488
-6340.5435
-6340.5571
-6340.5614
-6340.5648
-6340.5663
-6340.5663
-6340.5648
-6340.5614
-6340.5571
-6340.571
-6340.5743
-6340.577
-6340.5782
-6340.5782
-6340.577
-6340.5743
-6340.571
-6340.5849
-6340.5874
-6340.5894
-6340.5904
-6340.5904
-6340.5894
-6340.5874
-6340.5849
-6340.5987
-6340.6005
-6340.6021
-6340.6029
-6340.6029
-6340.6021
-6340.6006
-6340.5987
-6340.6125
-6340.6138
-6340.6149
-6340.6155
-6340.6155
-6340.6149
-6340.6138
-6340.6125
-6340.6261
-6340.627
-6340.6278
-6340.6282
-6340.6282
-6340.6278
-6340.627
-6340.6262
-6340.6397
-6340.6402
-6340.6408
-6340.6411
-6340.6411
-6340.6408
-6340.6402
-6340.6397
-6340.6531
-6340.6534
-6340.6538
-6340.654
-6340.654
-6340.6538
-6340.6535
-6340.6531
-6340.6664
-6340.6666
-6340.6668
-6340.667
-6340.667
-6340.6668
-6340.6666
-6340.6664
-6340.6796
-6340.6798
-6340.6799
-6340.68
-6340.68
-6340.6799
-6340.6798
-6340.6796
-6340.6928
-6340.6929
-6340.693
-6340.693
-6340.693
-6340.693
-6340.6929
-6340.6928
-6340.7059
-6340.706
-6340.706
-6340.7061
-6340.7061
-6340.706
-6340.706
-6340.7059
-6340.719
-6340.719
-6340.7191
-6340.7191
-6340.7191
-6340.7191
-6340.719
-6340.719
-6340.7321
-6340.7321
-6340.7321
-6340.7322
-6340.7322
-6340.7321
-6340.7321
-6340.7321
-6340.7452
-6340.7452
-6340.7452
-6340.7452
-6340.7452
-6340.7452
-6340.7452
-6340.7452
-6340.7582
-6340.7582
-6340.7583
-6340.7583
-6340.7583
-6340.7583
-6340.7582
-6340.7582
-6340.7713
-6340.7713
-6340.7713
-6340.7713
-6340.7713
-6340.7713
-6340.7713
-6340.7713
-6340.7843
-6340.7843
-6340.7844
-6340.7844
-6340.7844
-6340.7844
-6340.7843
-6340.7843
-6340.7974
-6340.7974
-6340.7974
-6340.7974
-6340.7974
-6340.7974
-6340.7974
-6340.7974
-6340.8104
-6340.8105
-6340.8105
-6340.8105
-6340.8105
-6340.8105
-6340.8105
-6340.8104
-6340.8235
-6340.8235
-6340.8236
-6340.8236
-6340.8236
-6340.8236
-6340.8235
-6340.8235
-6340.8365
-6340.8366
-6340.8366
-6340.8366
-6340.8366
-6340.8366
-6340.8366
-6340.8365
-6340.8496
-6340.8497
-6340.8497
-6340.8497
-6340.8497
-6340.8497
-6340.8496
-6340.8496
-6340.8627
-6340.8627
-6340.8628
-6340.8628
-6340.8628
-6340.8628
-6340.8627
-6340.8627
-6340.8758
-6340.8758
-6340.8758
-6340.8759
-6340.8759
-6340.8758
-6340.8758
-6340.8757
-6340.8888
-6340.8889
-6340.8889
-6340.8889
-6340.8889
-6340.8889
-6340.8889
-6340.8888
-6340.9019
-6340.902
-6340.902
-6340.902
-6340.902
-6340.902
-6340.902
-6340.9019
-6340.915
-6340.9151
-6340.9151
-6340.9151
-6340.9151
-6340.9151
-6340.915
-6340.915
-6340.9281
-6340.9281
-6340.9282
-6340.9282
-6340.9282
-6340.9282
-6340.9281
-6340.9281
-6340.9412
-6340.9412
-6340.9413
-6340.9413
-6340.9413
-6340.9413
-6340.9412
-6340.9412
-6340.9543
-6340.9543
-6340.9544
-6340.9544
-6340.9544
-6340.9543
-6340.9543
-6340.9543
-6340.9674
-6340.9674
-6340.9674
-6340.9675
-6340.9675
-6340.9674
-6340.9674
-6340.9674
-6340.9805
-6340.9805
-6340.9805
-6340.9806
-6340.9806
-6340.9805
-6340.9805
-6340.9805
-6340.9936
-6340.9936
-6340.9936
-6340.9937
-6340.9937
-6340.9936
-6340.9936
-6340.9936
-6341.0067
-6341.0067
-6341.0067
-6341.0068
-6341.0068
-6341.0067
-6341.0067
-6341.0067
-6341.0198
-6341.0198
-6341.0198
-6341.0199
-6341.0199
-6341.0198
-6341.0198
-6341.0198
-6341.0329
-6341.0329
-6341.0329
-6341.033
-6341.033
-6341.0329
-6341.0329
-6341.0329
-6341.046
-6341.046
-6341.0461
-6341.0461
-6341.0461
-6341.0461
-6341.046
-6341.046
-6341.0591
-6341.0591
-6341.0592
-6341.0592
-6341.0592
-6341.0592
-6341.0591
-6341.0591
-6341.0722
-6341.0723
-6341.0723
-6341.0723
-6341.0723
-6341.0723
-6341.0722
-6341.0722
-6341.0853
-6341.0854
-6341.0854
-6341.0854
-6341.0854
-6341.0854
-6341.0854
-6341.0853
-6341.0984
-6341.0985
-6341.0985
-6341.0985
-6341.0985
-6341.0985
-6341.0985
-6341.0984
-6341.1116
-6341.1116
-6341.1116
-6341.1116
-6341.1116
-6341.1116
-6341.1116
-6341.1116
-6341.1247
-6341.1247
-6341.1247
-6341.1248
-6341.1248
-6341.1247
-6341.1247
-6341.1247
-6341.1378
-6341.1378
-6341.1379
-6341.1379
-6341.1379
-6341.1379
-6341.1378
-6341.1378
-6341.1509
-6341.151
-6341.151
-6341.151
-6341.151
-6341.151
-6341.151
-6341.1509
-6341.1641
-6341.1641
-6341.1641
-6341.1641
-6341.1641
-6341.1641
-6341.1641
-6341.1641
-6341.1772
-6341.1772
-6341.1772
-6341.1773
-6341.1772
-6341.1772
-6341.1772
-6341.1772
-6341.1903
-6341.1903
-6341.1904
-6341.1904
-6341.1904
-6341.1904
-6341.1903
-6341.1903
-6341.2034
-6341.2035
-6341.2035
-6341.2035
-6341.2035
-6341.2035
-6341.2035
-6341.2034
-6341.2166
-6341.2166
-6341.2166
-6341.2166
-6341.2166
-6341.2166
-6341.2166
-6341.2166
-6341.2297
-6341.2297
-6341.2298
-6341.2298
-6341.2298
-6341.2298
-6341.2297
-6341.2297
-6341.2428
-6341.2429
-6341.2429
-6341.2429
-6341.2429
-6341.2429
-6341.2429
-6341.2428
-6341.256
-6341.256
-6341.256
-6341.256
-6341.256
-6341.256
-6341.256
-6341.256
-6341.2691
-6341.2691
-6341.2692
-6341.2692
-6341.2692
-6341.2692
-6341.2691
-6341.2691
-6341.2823
-6341.2823
-6341.2823
-6341.2823
-6341.2823
-6341.2823
-6341.2823
-6341.2823
-6341.2954
-6341.2954
-6341.2955
-6341.2955
-6341.2955
-6341.2954
-6341.2954
-6341.2954
-6341.3085
-6341.3086
-6341.3086
-6341.3086
-6341.3086
-6341.3086
-6341.3086
-6341.3085
-6341.3217
-6341.3217
-6341.3217
-6341.3217
-6341.3217
-6341.3217
-6341.3217
-6341.3217
-6341.3348
-6341.3349
-6341.3349
-6341.3349
-6341.3349
-6341.3349
-6341.3349
-6341.3348
-6341.348
-6341.348
-6341.348
-6341.348
-6341.348
-6341.348
-6341.348
-6341.348
-6341.3611
-6341.3612
-6341.3612
-6341.3612
-6341.3612
-6341.3612
-6341.3612
-6341.3611
-6341.3743
-6341.3743
-6341.3743
-6341.3743
-6341.3743
-6341.3743
-6341.3743
-6341.3743
-6341.3874
-6341.3874
-6341.3875
-6341.3875
-6341.3875
-6341.3875
-6341.3874
-6341.3874
-6341.4006
-6341.4006
-6341.4006
-6341.4006
-6341.4006
-6341.4006
-6341.4006
-6341.4006
-6341.4137
-6341.4137
-6341.4138
-6341.4138
-6341.4138
-6341.4138
-6341.4137
-6341.4137
-6341.4269
-6341.4269
-6341.4269
-6341.4269
-6341.4269
-6341.4269
-6341.4269
-6341.4269
-6341.44
-6341.4401
-6341.4401
-6341.4401
-6341.4401
-6341.4401
-6341.4401
-6341.44
-6341.4532
-6341.4532
-6341.4532
-6341.4532
-6341.4532
-6341.4532
-6341.4532
-6341.4532
-6341.4663
-6341.4664
-6341.4664
-6341.4664
-6341.4664
-6341.4664
-6341.4664
-6341.4663
-6341.4795
-6341.4795
-6341.4795
-6341.4795
-6341.4795
-6341.4795
-6341.4795
-6341.4795
-6341.4926
-6341.4927
-6341.4927
-6341.4927
-6341.4927
-6341.4927
-6341.4927
-6341.4926
-6341.5058
-6341.5058
-6341.5058
-6341.5058
-6341.5058
-6341.5058
-6341.5058
-6341.5058
-6341.519
-6341.519
-6341.519
-6341.519
-6341.519
-6341.519
-6341.519
-6341.519
-6341.5321
-6341.5321
-6341.5321
-6341.5322
-6341.5322
-6341.5321
-6341.5321
-6341.5321
-6341.5453
-6341.5453
-6341.5453
-6341.5453
-6341.5453
-6341.5453
-6341.5453
-6341.5453
-6341.5584
-6341.5584
-6341.5585
-6341.5585
-6341.5585
-6341.5585
-6341.5584
-6341.5584
-6341.5716
-6341.5716
-6341.5716
-6341.5716
-6341.5716
-6341.5716
-6341.5716
-6341.5716
-6341.5848
-6341.5848
-6341.5848
-6341.5848
-6341.5848
-6341.5848
-6341.5848
-6341.5848
-6341.5979
-6341.5979
-6341.5979
-6341.5979
-6341.5979
-6341.5979
-6341.5979
-6341.5979
-6341.6111
-6341.6111
-6341.6111
-6341.6111
-6341.6111
-6341.6111
-6341.6111
-6341.6111
-6341.6242
-6341.6243
-6341.6243
-6341.6243
-6341.6243
-6341.6243
-6341.6243
-6341.6242
-6341.6374
-6341.6374
-6341.6374
-6341.6374
-6341.6374
-6341.6374
-6341.6374
-6341.6374
-6341.6506
-6341.6506
-6341.6506
-6341.6506
-6341.6506
-6341.6506
-6341.6506
-6341.6506
-6341.6637
-6341.6637
-6341.6637
-6341.6637
-6341.6637
-6341.6637
-6341.6637
-6341.6637
-6341.6769
-6341.6769
-6341.6769
-6341.6769
-6341.6769
-6341.6769
-6341.6769
-6341.6769
-6341.6901
-6341.6901
-6341.6901
-6341.6901
-6341.6901
-6341.6901
-6341.6901
-6341.6901
-6341.7032
-6341.7032
-6341.7032
-6341.7032
-6341.7032
-6341.7032
-6341.7032
-6341.7032
-6341.7164
-6341.7164
-6341.7164
-6341.7164
-6341.7164
-6341.7164
-6341.7164
-6341.7164
-6341.7295
-6341.7296
-6341.7296
-6341.7296
-6341.7296
-6341.7296
-6341.7296
-6341.7295
-6341.7427
-6341.7427
-6341.7427
-6341.7427
-6341.7427
-6341.7427
-6341.7427
-6341.7427
-6341.7559
-6341.7559
-6341.7559
-6341.7559
-6341.7559
-6341.7559
-6341.7559
-6341.7559
-6341.769
-6341.769
-6341.7691
-6341.7691
-6341.7691
-6341.7691
-6341.769
-6341.769
-6341.7822
-6341.7822
-6341.7822
-6341.7822
-6341.7822
-6341.7822
-6341.7822
-6341.7822
-6341.7954
-6341.7954
-6341.7954
-6341.7954
-6341.7954
-6341.7954
-6341.7954
-6341.7954
-6341.8085
-6341.8085
-6341.8085
-6341.8085
-6341.8085
-6341.8085
-6341.8085
-6341.8085
-6341.8217
-6341.8217
-6341.8217
-6341.8217
-6341.8217
-6341.8217
-6341.8217
-6341.8217
-6341.8349
-6341.8349
-6341.8349
-6341.8349
-6341.8349
-6341.8349
-6341.8349
-6341.8349
-6341.848
-6341.848
-6341.848
-6341.848
-6341.848
-6341.848
-6341.848
-6341.848
-6341.8612
-6341.8612
-6341.8612
-6341.8612
-6341.8612
-6341.8612
-6341.8612
-6341.8612
-6341.8744
-6341.8744
-6341.8744
-6341.8744
-6341.8744
-6341.8744
-6341.8744
-6341.8744
-6341.8875
-6341.8875
-6341.8875
-6341.8875
-6341.8875
-6341.8875
-6341.8875
-6341.8875
-6341.9007
-6341.9007
-6341.9007
-6341.9007
-6341.9007
-6341.9007
-6341.9007
-6341.9007
-6341.9139
-6341.9139
-6341.9139
-6341.9139
-6341.9139
-6341.9139
-6341.9139
-6341.9139
-6341.927
-6341.927
-6341.927
-6341.927
-6341.927
-6341.927
-6341.927
-6341.927
-6341.9402
-6341.9402
-6341.9402
-6341.9402
-6341.9402
-6341.9402
-6341.9402
-6341.9402
-6341.9534
-6341.9534
-6341.9534
-6341.9534
-6341.9534
-6341.9534
-6341.9534
-6341.9534
-6341.9665
-6341.9665
-6341.9665
-6341.9665
-6341.9665
-6341.9665
-6341.9665
-6341.9665
-6341.9797
-6341.9797
-6341.9797
-6341.9797
-6341.9797
-6341.9797
-6341.9797
-6341.9797
-6341.9929
-6341.9929
-6341.9929
-6341.9929
-6341.9929
-6341.9929
-6341.9929
-6341.9928
-6342.006
-6342.006
-6342.006
-6342.006
-6342.006
-6342.006
-6342.006
-6342.006
-6342.0192
-6342.0192
-6342.0192
-6342.0192
-6342.0192
-6342.0192
-6342.0192
-6342.0192
-6342.0324
-6342.0324
-6342.0324
-6342.0324
-6342.0324
-6342.0324
-6342.0323
-6342.0324
-6342.0455
-6342.0455
-6342.0455
-6342.0455
-6342.0455
-6342.0455
-6342.0455
-6342.0455
-6342.0587
-6342.0587
-6342.0587
-6342.0587
-6342.0587
-6342.0587
-6342.0587
-6342.0587
-6342.0718
-6342.0719
-6342.0718
-6342.0719
-6342.0719
-6342.0718
-6342.0719
-6342.0718
-6342.085
-6342.085
-6342.085
-6342.085
-6342.085
-6342.085
-6342.085
-6342.085
-6342.0982
-6342.0982
-6342.0982
-6342.0982
-6342.0982
-6342.0982
-6342.0982
-6342.0982
-6342.1113
-6342.1113
-6342.1113
-6342.1113
-6342.1113
-6342.1113
-6342.1113
-6342.1113
-6342.1245
-6342.1245
-6342.1245
-6342.1245
-6342.1245
-6342.1245
-6342.1245
-6342.1245
-6342.1377
-6342.1377
-6342.1377
-6342.1377
-6342.1377
-6342.1377
-6342.1377
-6342.1377
-6342.1508
-6342.1508
-6342.1508
-6342.1508
-6342.1508
-6342.1508
-6342.1508
-6342.1508
-6342.164
-6342.164
-6342.164
-6342.164
-6342.164
-6342.164
-6342.164
-6342.164
-6342.1772
-6342.1772
-6342.1772
-6342.1772
-6342.1772
-6342.1772
-6342.1772
-6342.1772
-6342.1903
-6342.1903
-6342.1903
-6342.1903
-6342.1903
-6342.1903
-6342.1903
-6342.1903
-6342.2035
-6342.2035
-6342.2035
-6342.2035
-6342.2035
-6342.2035
-6342.2035
-6342.2035
-6342.2167
-6342.2167
-6342.2167
-6342.2167
-6342.2167
-6342.2167
-6342.2167
-6342.2167
-6342.2298
-6342.2298
-6342.2298
-6342.2298
-6342.2298
-6342.2298
-6342.2298
-6342.2298
-6342.243
-6342.243
-6342.243
-6342.243
-6342.243
-6342.243
-6342.243
-6342.243
-6342.2561
-6342.2562
-6342.2561
-6342.2562
-6342.2561
-6342.2561
-6342.2562
-6342.2561
-6342.2693
-6342.2693
-6342.2693
-6342.2693
-6342.2693
-6342.2693
-6342.2693
-6342.2693
-6342.2825
-6342.2825
-6342.2825
-6342.2825
-6342.2825
-6342.2825
-6342.2825
-6342.2825
-6342.2956
-6342.2956
-6342.2956
-6342.2956
-6342.2956
-6342.2956
-6342.2956
-6342.2956
-6342.3088
-6342.3088
-6342.3088
-6342.3088
-6342.3088
-6342.3088
-6342.3088
-6342.3088
-6342.322
-6342.322
-6342.322
-6342.322
-6342.322
-6342.322
-6342.322
-6342.322
-6342.3351
-6342.3351
-6342.3351
-6342.3351
-6342.3351
-6342.3351
-6342.3351
-6342.3351
-6342.3483
-6342.3483
-6342.3483
-6342.3483
-6342.3483
-6342.3483
-6342.3483
-6342.3483
-6342.3614
-6342.3614
-6342.3614
-6342.3614
-6342.3614
-6342.3614
-6342.3614
-6342.3614
-6342.3746
-6342.3746
-6342.3746
-6342.3746
-6342.3746
-6342.3746
-6342.3746
-6342.3746
-6342.3878
-6342.3878
-6342.3878
-6342.3878
-6342.3878
-6342.3878
-6342.3878
-6342.3878
-6342.4009
-6342.4009
-6342.4009
-6342.4009
-6342.4009
-6342.4009
-6342.4009
-6342.4009
-6342.4141
-6342.4141
-6342.4141
-6342.4141
-6342.4141
-6342.4141
-6342.4141
-6342.4141
-6342.4272
-6342.4272
-6342.4272
-6342.4272
-6342.4272
-6342.4272
-6342.4272
-6342.4272
-6342.4404
-6342.4404
-6342.4404
-6342.4404
-6342.4404
-6342.4404
-6342.4404
-6342.4404
-6342.4536
-6342.4536
-6342.4536
-6342.4536
-6342.4536
-6342.4536
-6342.4536
-6342.4536
-6342.4667
-6342.4667
-6342.4667
-6342.4667
-6342.4667
-6342.4667
-6342.4667
-6342.4667
-6342.4799
-6342.4799
-6342.4799
-6342.4799
-6342.4799
-6342.4799
-6342.4799
-6342.4799
-6342.493
-6342.493
-6342.493
-6342.493
-6342.493
-6342.493
-6342.493
-6342.493
-6342.5062
-6342.5062
-6342.5062
-6342.5062
-6342.5062
-6342.5062
-6342.5062
-6342.5062
-6342.5193
-6342.5193
-6342.5193
-6342.5193
-6342.5193
-6342.5193
-6342.5193
-6342.5193
-6342.5325
-6342.5325
-6342.5325
-6342.5325
-6342.5325
-6342.5325
-6342.5325
-6342.5325
-6342.5457
-6342.5457
-6342.5456
-6342.5456
-6342.5456
-6342.5456
-6342.5457
-6342.5457
-6342.5588
-6342.5588
-6342.5588
-6342.5588
-6342.5588
-6342.5588
-6342.5588
-6342.5588
-6342.572
-6342.572
-6342.572
-6342.572
-6342.572
-6342.572
-6342.572
-6342.572
-6342.5851
-6342.5851
-6342.5851
-6342.5851
-6342.5851
-6342.5851
-6342.5851
-6342.5851
-6342.5983
-6342.5983
-6342.5983
-6342.5983
-6342.5983
-6342.5983
-6342.5983
-6342.5983
-6342.6114
-6342.6114
-6342.6114
-6342.6114
-6342.6114
-6342.6114
-6342.6114
-6342.6114
-6342.6246
-6342.6246
-6342.6246
-6342.6246
-6342.6246
-6342.6246
-6342.6246
-6342.6246
-6342.6377
-6342.6377
-6342.6377
-6342.6377
-6342.6377
-6342.6377
-6342.6377
-6342.6377
-6342.6509
-6342.6509
-6342.6509
-6342.6509
-6342.6509
-6342.6509
-6342.6509
-6342.6509
-6342.664
-6342.664
-6342.664
-6342.664
-6342.664
-6342.664
-6342.664
-6342.664
-6342.6772
-6342.6772
-6342.6772
-6342.6772
-6342.6772
-6342.6772
-6342.6772
-6342.6772
-6342.6903
-6342.6903
-6342.6903
-6342.6903
-6342.6903
-6342.6903
-6342.6903
-6342.6903
-6342.7035
-6342.7035
-6342.7035
-6342.7035
-6342.7035
-6342.7035
-6342.7035
-6342.7035
-6342.7166
-6342.7166
-6342.7166
-6342.7166
-6342.7166
-6342.7166
-6342.7166
-6342.7166
-6342.7298
-6342.7298
-6342.7298
-6342.7298
-6342.7298
-6342.7298
-6342.7298
-6342.7298
-6342.7429
-6342.7429
-6342.7429
-6342.7429
-6342.7429
-6342.7429
-6342.7429
-6342.7429
-6342.7561
-6342.7561
-6342.7561
-6342.7561
-6342.7561
-6342.7561
-6342.7561
-6342.7561
-6342.7692
-6342.7692
-6342.7692
-6342.7692
-6342.7692
-6342.7692
-6342.7692
-6342.7692
-6342.7824
-6342.7824
-6342.7823
-6342.7823
-6342.7823
-6342.7823
-6342.7823
-6342.7823
-6342.7955
-6342.7955
-6342.7955
-6342.7955
-6342.7955
-6342.7955
-6342.7955
-6342.7955
-6342.8086
-6342.8086
-6342.8086
-6342.8086
-6342.8086
-6342.8086
-6342.8086
-6342.8086
-6342.8218
-6342.8218
-6342.8218
-6342.8218
-6342.8218
-6342.8218
-6342.8218
-6342.8218
-6342.8349
-6342.8349
-6342.8349
-6342.8349
-6342.8349
-6342.8349
-6342.8349
-6342.8349
-6342.8481
-6342.8481
-6342.8481
-6342.8481
-6342.8481
-6342.8481
-6342.8481
-6342.8481
-6342.8612
-6342.8612
-6342.8612
-6342.8612
-6342.8612
-6342.8612
-6342.8612
-6342.8612
-6342.8744
-6342.8743
-6342.8743
-6342.8743
-6342.8743
-6342.8743
-6342.8743
-6342.8743
-6342.8875
-6342.8875
-6342.8875
-6342.8875
-6342.8875
-6342.8875
-6342.8875
-6342.8875
-6342.9006
-6342.9006
-6342.9006
-6342.9006
-6342.9006
-6342.9006
-6342.9006
-6342.9006
-6342.9138
-6342.9138
-6342.9138
-6342.9138
-6342.9138
-6342.9138
-6342.9138
-6342.9138
-6342.9269
-6342.9269
-6342.9269
-6342.9269
-6342.9269
-6342.9269
-6342.9269
-6342.9269
-6342.94
-6342.94
-6342.94
-6342.94
-6342.94
-6342.94
-6342.94
-6342.94
-6342.9532
-6342.9532
-6342.9532
-6342.9532
-6342.9532
-6342.9532
-6342.9532
-6342.9532
-6342.9663
-6342.9663
-6342.9663
-6342.9663
-6342.9663
-6342.9663
-6342.9663
-6342.9663
-6342.9794
-6342.9794
-6342.9794
-6342.9794
-6342.9794
-6342.9794
-6342.9794
-6342.9794
-6342.9926
-6342.9926
-6342.9926
-6342.9926
-6342.9926
-6342.9926
-6342.9926
-6342.9926
-6343.0057
-6343.0057
-6343.0057
-6343.0057
-6343.0057
-6343.0057
-6343.0057
-6343.0057
-6343.0188
-6343.0188
-6343.0188
-6343.0188
-6343.0188
-6343.0188
-6343.0188
-6343.0188
-6343.032
-6343.032
-6343.032
-6343.032
-6343.032
-6343.032
-6343.032
-6343.032
-6343.0451
-6343.0451
-6343.0451
-6343.0451
-6343.0451
-6343.0451
-6343.0451
-6343.0451
-6343.0582
-6343.0582
-6343.0582
-6343.0582
-6343.0582
-6343.0582
-6343.0582
-6343.0582
-6343.0714
-6343.0713
-6343.0713
-6343.0713
-6343.0713
-6343.0713
-6343.0714
-6343.0714
-6343.0845
-6343.0845
-6343.0845
-6343.0845
-6343.0845
-6343.0845
-6343.0845
-6343.0845
-6343.0976
-6343.0976
-6343.0976
-6343.0976
-6343.0976
-6343.0976
-6343.0976
-6343.0976
-6343.1107
-6343.1107
-6343.1107
-6343.1107
-6343.1107
-6343.1107
-6343.1107
-6343.1107
-6343.1239
-6343.1238
-6343.1238
-6343.1238
-6343.1238
-6343.1238
-6343.1238
-6343.1239
-6343.137
-6343.137
-6343.1369
-6343.1369
-6343.1369
-6343.137
-6343.137
-6343.137
-6343.1501
-6343.1501
-6343.1501
-6343.1501
-6343.1501
-6343.1501
-6343.1501
-6343.1501
-6343.1632
-6343.1632
-6343.1632
-6343.1632
-6343.1632
-6343.1632
-6343.1632
-6343.1632
-6343.1763
-6343.1763
-6343.1763
-6343.1763
-6343.1763
-6343.1763
-6343.1763
-6343.1763
-6343.1894
-6343.1894
-6343.1894
-6343.1894
-6343.1894
-6343.1894
-6343.1894
-6343.1895
-6343.2026
-6343.2025
-6343.2025
-6343.2025
-6343.2025
-6343.2025
-6343.2025
-6343.2026
-6343.2157
-6343.2156
-6343.2156
-6343.2156
-6343.2156
-6343.2156
-6343.2156
-6343.2157
-6343.2288
-6343.2288
-6343.2287
-6343.2287
-6343.2287
-6343.2287
-6343.2288
-6343.2288
-6343.2419
-6343.2419
-6343.2418
-6343.2418
-6343.2418
-6343.2418
-6343.2419
-6343.2419
-6343.255
-6343.255
-6343.2549
-6343.2549
-6343.2549
-6343.2549
-6343.255
-6343.255
-6343.2681
-6343.2681
-6343.268
-6343.268
-6343.268
-6343.268
-6343.2681
-6343.2682
-6343.2813
-6343.2812
-6343.2811
-6343.2811
-6343.2811
-6343.2811
-6343.2812
-6343.2813
-6343.2944
-6343.2943
-6343.2942
-6343.2941
-6343.2941
-6343.2942
-6343.2943
-6343.2944
-6343.3076
-6343.3074
-6343.3073
-6343.3072
-6343.3072
-6343.3073
-6343.3074
-6343.3076
-6343.3208
-6343.3206
-6343.3203
-6343.3202
-6343.3202
-6343.3203
-6343.3206
-6343.3208
-6343.334
-6343.3337
-6343.3334
-6343.3332
-6343.3332
-6343.3334
-6343.3337
-6343.334
-6343.3473
-6343.3468
-6343.3464
-6343.3462
-6343.3462
-6343.3464
-6343.3468
-6343.3473
-6343.3606
-6343.36
-6343.3594
-6343.3591
-6343.3591
-6343.3594
-6343.3599
-6343.3606
-6343.374
-6343.3731
-6343.3723
-6343.3719
-6343.3719
-6343.3723
-6343.373
-6343.374
-6343.3874
-6343.3861
-6343.3852
-6343.3847
-6343.3847
-6343.3851
-6343.3861
-6343.3873
-6343.4008
-6343.3992
-6343.3979
-6343.3973
-6343.3973
-6343.3979
-6343.3991
-6343.4007
-6343.4141
-6343.4121
-6343.4105
-6343.4099
-6343.4098
-6343.4105
-6343.412
-6343.4141
-6343.4274
-6343.4248
-6343.4229
-6343.4222
-6343.4222
-6343.4229
-6343.4247
-6343.4273
-6343.4405
-6343.4374
-6343.4351
-6343.4343
-6343.4343
-6343.4351
-6343.4373
-6343.4404
-6343.4533
-6343.4496
-6343.447
-6343.4462
-6343.4462
-6343.447
-6343.4495
-6343.4531
-6343.4656
-6343.4614
-6343.4586
-6343.4578
-6343.4578
-6343.4586
-6343.4613
-6343.4654
-6343.4773
-6343.4727
-6343.4698
-6343.4692
-6343.4692
-6343.4697
-6343.4725
-6343.477
-6343.488
-6343.4832
-6343.4806
-6343.4804
-6343.4804
-6343.4805
-6343.483
-6343.4878
-6343.4978
-6343.4929
-6343.4909
-6343.4914
-6343.4914
-6343.4908
-6343.4927
-6343.4975
-6343.5068
-6343.5022
-6343.5006
-6343.5014
-6343.5014
-6343.5004
-6343.502
-6343.5065
-6343.5144
-6343.512
-6343.51
-6343.509
-6343.509
-6343.5099
-6343.5119
-6343.5142
)
;

boundaryField
{
    left
    {
        type            zeroGradient;
    }
    right
    {
        type            WKBC;
        index           0;
        value           uniform -6343.5154;
    }
    walls
    {
        type            zeroGradient;
    }
    frontAndBack
    {
        type            empty;
    }
}


// ************************************************************************* //
