/*--------------------------------*- C++ -*----------------------------------*\
| =========                 |                                                 |
| \\      /  F ield         | OpenFOAM: The Open Source CFD Toolbox           |
|  \\    /   O peration     | Version:  5.x                                   |
|   \\  /    A nd           | Web:      www.OpenFOAM.org                      |
|    \\/     M anipulation  |                                                 |
\*---------------------------------------------------------------------------*/
FoamFile
{
    version     2.0;
    format      ascii;
    class       surfaceScalarField;
    location    "5";
    object      phi;
}
// * * * * * * * * * * * * * * * * * * * * * * * * * * * * * * * * * * * * * //

dimensions      [0 3 -1 0 0 0 0];

internalField   nonuniform List<scalar> 
3592
(
-7.418268e-10
7.418268e-10
-1.8014312e-09
1.0596099e-09
-1.6047938e-09
-1.9663193e-10
1.0328285e-12
-1.6058217e-09
1.605829e-09
-1.6047913e-09
1.8024688e-09
-1.9663477e-10
7.4183075e-10
1.0606434e-09
7.4183608e-10
-1.3746357e-09
2.1164687e-09
-3.7863876e-09
3.4713734e-09
-3.4754421e-09
-5.0756605e-10
1.6966644e-12
-5.0829494e-09
3.4797565e-09
-5.08284e-09
3.7879462e-09
-5.0481315e-10
1.375502e-09
3.4730991e-09
2.1173444e-09
-2.1907092e-09
4.307185e-09
-5.3538094e-09
6.6344852e-09
-4.7804828e-09
-1.0808815e-09
3.2585704e-12
-9.8666799e-09
4.7848808e-09
-9.8644512e-09
5.3573262e-09
-1.0772471e-09
2.1915248e-09
6.6389117e-09
4.3088747e-09
-2.8077448e-09
7.1149364e-09
-6.4126223e-09
1.0239374e-08
-5.6310579e-09
-1.862435e-09
2.9729974e-12
-1.55007e-08
5.6372292e-09
-1.5498697e-08
6.4157695e-09
-1.8557762e-09
2.809013e-09
1.0245679e-08
7.1178934e-09
-3.10994e-09
1.0224882e-08
-7.0025519e-09
1.4131996e-08
-6.0684336e-09
-2.7965432e-09
3.3667042e-12
-2.1572491e-08
6.0734964e-09
-2.1568816e-08
7.0062538e-09
-2.7885232e-09
3.1110785e-09
1.4140865e-08
1.0228977e-08
-3.2263383e-09
1.3451227e-08
-7.1241044e-09
1.8029774e-08
-6.170199e-09
-3.7504378e-09
2.4620195e-12
-2.7745141e-08
6.1749979e-09
-2.7741342e-08
7.1268574e-09
-3.7403717e-09
3.2273545e-09
1.8040378e-08
1.3456337e-08
-3.1041694e-09
1.6555402e-08
-6.9120674e-09
2.1837682e-08
-5.9576002e-09
-4.7048949e-09
1.8451908e-12
-3.3704577e-08
5.96063e-09
-3.3700117e-08
6.9141102e-09
-4.6938416e-09
3.1049237e-09
2.1849575e-08
1.6561266e-08
-2.8918549e-09
1.9447264e-08
-6.3885554e-09
2.5334394e-08
-5.5288907e-09
-5.5645486e-09
8.3142514e-13
-3.9234289e-08
5.5302704e-09
-3.9229545e-08
6.3895629e-09
-5.5531232e-09
2.8921486e-09
2.5347e-08
1.945342e-08
-2.5434425e-09
2.1990712e-08
-5.7062566e-09
2.8497218e-08
-4.9331515e-09
-6.3376438e-09
-2.8534003e-13
-4.4167145e-08
4.9330043e-09
-4.4162825e-08
5.7059401e-09
-6.326049e-09
2.5434866e-09
2.8509463e-08
2.1996912e-08
-2.1864239e-09
2.4177142e-08
-4.896283e-09
3.1207089e-08
-4.2633276e-09
-6.9705882e-09
-9.8849658e-13
-4.8429474e-08
4.2611086e-09
-4.8424912e-08
4.8953149e-09
-6.9602442e-09
2.1859728e-09
3.1218816e-08
2.418289e-08
-1.7847684e-09
2.5961916e-08
-4.0742879e-09
3.3496618e-08
-3.5542522e-09
-7.4906142e-09
-2.0990715e-12
-5.1981618e-08
3.5512584e-09
-5.197826e-08
4.071997e-09
-7.4809729e-09
1.7841846e-09
3.3506638e-08
2.596708e-08
-1.4230229e-09
2.7384946e-08
-3.26232e-09
3.5335927e-08
-2.8720118e-09
-7.8809112e-09
-2.3547011e-12
-5.4851264e-08
2.8672431e-09
-5.4847847e-08
3.2598918e-09
-7.8736106e-09
1.4220738e-09
3.5344467e-08
2.7389159e-08
-1.07729e-09
2.8462241e-08
-2.5283995e-09
3.6787047e-08
-2.237872e-09
-8.1714292e-09
-3.2013095e-12
-5.7085926e-08
2.2330415e-09
-5.708408e-08
2.5249544e-09
-8.1655139e-09
1.0763309e-09
3.67931e-08
2.8465495e-08
-7.8934933e-10
2.9251597e-08
-1.8807707e-09
3.7878479e-08
-1.6850481e-09
-8.3671406e-09
-3.1462441e-12
-5.8767817e-08
1.6789465e-09
-5.8766162e-08
1.8775222e-09
-8.3640785e-09
7.8816729e-10
3.7882465e-08
2.9253668e-08
-5.4609193e-10
2.9797695e-08
-1.343985e-09
3.8676382e-08
-1.2182962e-09
-8.4928201e-09
-3.7276112e-12
-5.9982376e-08
1.212468e-09
-5.9982349e-08
1.3400274e-09
-8.4916284e-09
5.4495676e-10
3.8677545e-08
2.9798629e-08
-3.5673746e-10
3.0154439e-08
-9.1339589e-10
3.9233052e-08
-8.4375266e-10
-8.5624521e-09
-3.5901765e-12
-6.0822528e-08
8.370464e-10
-6.0822975e-08
9.0969969e-10
-8.5642706e-09
3.5545919e-10
3.9231796e-08
3.0154094e-08
-2.1503703e-10
3.0369481e-08
-5.8429052e-10
3.9602316e-08
-5.5431145e-10
-8.592422e-09
-3.990138e-12
-6.1372841e-08
5.4786727e-10
-6.1374823e-08
5.8008837e-10
-8.5964825e-09
2.1380031e-10
3.9598094e-08
3.0367899e-08
-1.120942e-10
3.0481582e-08
-3.4514058e-10
3.9835373e-08
-3.4060571e-10
-8.5969456e-09
-3.8827349e-12
-6.1709553e-08
3.3356264e-10
-6.1712258e-08
3.4112084e-10
-8.6040295e-09
1.1074624e-10
3.9828479e-08
3.0478651e-08
-4.6303191e-11
3.052789e-08
-1.7826796e-10
3.9967348e-08
-1.9092965e-10
-8.584275e-09
-4.1344218e-12
-6.1896339e-08
1.8406585e-10
-6.190045e-08
1.739136e-10
-8.5938684e-09
4.4984358e-11
3.9957417e-08
3.052364e-08
-2.29073e-12
3.0530188e-08
-7.183542e-11
4.0036904e-08
-9.1038497e-11
-8.5650607e-09
-4.0340991e-12
-6.1983333e-08
8.3871532e-11
-6.1988345e-08
6.7623114e-11
-8.5776088e-09
8.9456311e-13
4.0024156e-08
3.052454e-08
1.8039662e-11
3.0512153e-08
-6.7435894e-12
4.0061697e-08
-3.0272465e-11
-8.5415231e-09
-4.08852e-12
-6.2009509e-08
2.3349249e-11
-6.2015774e-08
2.4178122e-12
-8.5566686e-09
-1.9381683e-11
4.0045964e-08
3.0505163e-08
2.9966636e-11
3.0482193e-08
2.5067281e-11
4.0066607e-08
4.0286585e-12
-8.5204732e-09
-3.8957286e-12
-6.2001573e-08
-1.0854699e-11
-6.2008804e-08
-2.9160091e-11
-8.538352e-09
-3.1321844e-11
4.0048137e-08
3.0473846e-08
2.8848342e-11
3.045335e-08
3.8752646e-11
4.0056712e-08
1.8802436e-11
-8.5005145e-09
-3.7016176e-12
-6.1979061e-08
-2.5143834e-11
-6.1987354e-08
-4.2679472e-11
-8.5208079e-09
-3.0082419e-11
4.0035548e-08
3.0443768e-08
2.7561598e-11
3.0425795e-08
3.7562877e-11
4.0046722e-08
2.2917974e-11
-8.4858582e-09
-3.3277571e-12
-6.1952805e-08
-2.8705312e-11
-6.1961965e-08
-4.1071679e-11
-8.5084303e-09
-2.8724853e-11
4.0023212e-08
3.0415049e-08
1.9523354e-11
3.0406276e-08
3.1886101e-11
4.0034369e-08
1.9436706e-11
-8.4734006e-09
-2.882189e-12
-6.1930478e-08
-2.4415693e-11
-6.1940424e-08
-3.4947611e-11
-8.4978901e-09
-2.0483152e-11
4.0008756e-08
3.039457e-08
1.5275957e-11
3.0391007e-08
2.1079749e-11
4.0028576e-08
1.3777283e-11
-8.4660868e-09
-2.3443348e-12
-6.1914345e-08
-1.7817424e-11
-6.192494e-08
-2.3536317e-11
-8.49216e-09
-1.6090783e-11
4.0001321e-08
3.0378485e-08
7.081547e-12
3.038393e-08
1.2030205e-11
4.0023636e-08
6.2205989e-12
-8.4602691e-09
-1.7243622e-12
-6.1906393e-08
-9.2181286e-12
-6.1917438e-08
-1.3847172e-11
-8.4875228e-09
-7.6321632e-12
3.9995114e-08
3.0370857e-08
3.9964572e-12
3.0379941e-08
1.715314e-12
4.0025929e-08
-2.2795451e-14
-8.4585196e-09
-1.0975736e-12
-6.1905307e-08
-1.8295429e-12
-6.1916696e-08
-2.8301493e-12
-8.486511e-09
-4.365689e-12
3.999666e-08
3.0366497e-08
-2.2583148e-12
3.0382203e-08
-4.8996766e-12
4.0028579e-08
-6.2276416e-12
-8.4571838e-09
-4.2100969e-13
-6.1911106e-08
5.4756106e-12
-6.1922585e-08
4.4841866e-12
-8.4855117e-09
2.1719515e-12
3.9998981e-08
3.0368673e-08
-3.3261962e-12
3.0385536e-08
-1.1961141e-11
4.0037225e-08
-1.0260096e-11
-8.4588735e-09
1.8318023e-13
-6.1921539e-08
1.0644298e-11
-6.1933035e-08
1.2222335e-11
-8.4870785e-09
3.4116881e-12
4.0007802e-08
3.037209e-08
-7.6549734e-12
3.0393196e-08
-1.5285631e-11
4.0044864e-08
-1.4061224e-11
-8.4600902e-09
7.9943373e-13
-6.1936392e-08
1.5415137e-11
-6.1947643e-08
1.6176333e-11
-8.487832e-09
7.9991129e-12
4.0015987e-08
3.0380093e-08
-7.1127716e-12
3.0400315e-08
-1.9390773e-11
4.0057154e-08
-1.5867621e-11
-8.463602e-09
1.285228e-12
-6.1953534e-08
1.8170185e-11
-6.1964517e-08
2.0827726e-11
-8.4904783e-09
7.5819445e-12
4.0029243e-08
3.0387681e-08
-1.0142415e-11
3.0410462e-08
-2.0275753e-11
4.0067295e-08
-1.7805566e-11
-8.4660647e-09
1.7590393e-12
-6.1973091e-08
2.0812983e-11
-6.1983564e-08
2.2183053e-11
-8.4918408e-09
1.0816591e-11
4.0040618e-08
3.0398501e-08
-8.6279335e-12
3.0419097e-08
-2.2485873e-11
4.0081165e-08
-1.8152307e-11
-8.4703869e-09
2.0713773e-12
-6.1993304e-08
2.1818584e-11
-6.20033e-08
2.474989e-11
-8.4947609e-09
9.36049e-12
4.0056018e-08
3.0407867e-08
-1.0951617e-11
3.0430053e-08
-2.1974932e-11
4.0092196e-08
-1.9021871e-11
-8.4733327e-09
2.3677019e-12
-6.2014687e-08
2.3072629e-11
-6.2023998e-08
2.4513661e-11
-8.4961946e-09
1.1824277e-11
4.0068714e-08
3.0419695e-08
-8.9580215e-12
3.0439017e-08
-2.3207416e-11
4.0106457e-08
-1.862667e-11
-8.4779021e-09
2.4957923e-12
-6.2035798e-08
2.3024539e-11
-6.2044516e-08
2.5903613e-11
-8.4990625e-09
9.8202439e-12
4.0084808e-08
3.0429521e-08
-1.0964272e-11
3.0449986e-08
-2.2049205e-11
4.011755e-08
-1.9018022e-11
-8.4809262e-09
2.6205611e-12
-6.205743e-08
2.3494481e-11
-6.2065383e-08
2.4833521e-11
-8.5003944e-09
1.1905898e-11
4.0097743e-08
3.044143e-08
-8.7839912e-12
3.0458776e-08
-2.2876609e-11
4.0131654e-08
-1.8338442e-11
-8.485453e-09
2.5871554e-12
-6.2078345e-08
2.288816e-11
-6.2085673e-08
2.5646084e-11
-8.5031411e-09
9.6567752e-12
4.0113743e-08
3.0451093e-08
-1.0678366e-11
3.0469459e-08
-2.1491547e-11
4.0142475e-08
-1.8582319e-11
-8.4883554e-09
2.5729044e-12
-6.2099493e-08
2.2964344e-11
-6.2106058e-08
2.4200194e-11
-8.5043701e-09
1.1583426e-11
4.0126367e-08
3.046268e-08
-8.4545045e-12
3.047792e-08
-2.2203117e-11
4.0156235e-08
-1.7846714e-11
-8.4927004e-09
2.4190432e-12
-6.2119748e-08
2.2098391e-11
-6.2125727e-08
2.4770703e-11
-8.5070311e-09
9.2488887e-12
4.0141899e-08
3.0471934e-08
-1.0326017e-11
3.048825e-08
-2.0783546e-11
4.0166699e-08
-1.8087304e-11
-8.49539e-09
2.309628e-12
-6.2140139e-08
2.2003327e-11
-6.2145414e-08
2.3190397e-11
-8.5082115e-09
1.1122456e-11
4.0153974e-08
3.048306e-08
-8.1150321e-12
3.0496372e-08
-2.1495399e-11
4.0180091e-08
-1.7380386e-11
-8.4994936e-09
2.0808643e-12
-6.2159589e-08
2.1040751e-11
-6.2164363e-08
2.3685012e-11
-8.5108446e-09
8.7763664e-12
4.0168893e-08
3.0491842e-08
-9.9919346e-12
3.0506367e-08
-2.0107313e-11
4.0190214e-08
-1.7657917e-11
-8.5019366e-09
1.9197011e-12
-6.2179161e-08
2.0891398e-11
-6.2183328e-08
2.208384e-11
-8.5120305e-09
1.0640994e-11
4.0180343e-08
3.0502486e-08
-7.8083661e-12
3.0514182e-08
-2.0848601e-11
4.0203265e-08
-1.6992337e-11
-8.5057815e-09
1.656903e-12
-6.2197799e-08
1.991502e-11
-6.2201576e-08
2.2575767e-11
-8.5146801e-09
8.3128115e-12
4.0194616e-08
3.0510805e-08
-9.6926541e-12
3.0523879e-08
-1.9500133e-11
4.021308e-08
-1.7300832e-11
-8.5079746e-09
1.480095e-12
-6.2216574e-08
1.9768792e-11
-6.2219858e-08
2.1000671e-11
-8.5159057e-09
1.0183051e-11
4.0205441e-08
3.0520991e-08
-7.5345224e-12
3.053142e-08
-2.0264683e-11
4.0225821e-08
-1.6661527e-11
-8.5115664e-09
1.2148705e-12
-6.2234439e-08
1.8817619e-11
-6.223745e-08
2.151713e-11
-8.518594e-09
7.8818029e-12
4.0219086e-08
3.0528878e-08
-9.4196856e-12
3.0540843e-08
-1.8943671e-11
4.0235352e-08
-1.6981038e-11
-8.5135231e-09
1.0484999e-12
-6.2252463e-08
1.8700136e-11
-6.2255096e-08
1.9983401e-11
-8.5198712e-09
9.7596707e-12
4.0229316e-08
3.0538641e-08
-7.2806987e-12
3.0548131e-08
-1.9715922e-11
4.0247799e-08
-1.6347806e-11
-8.5168798e-09
8.0213323e-13
-6.2269602e-08
1.7790125e-11
-6.2272073e-08
2.0530739e-11
-8.5226007e-09
7.4860476e-12
4.0242371e-08
3.0546133e-08
-9.1594338e-12
3.0557293e-08
-1.8407287e-11
4.0257053e-08
-1.6659231e-11
-8.5186221e-09
6.6238536e-13
-6.2286918e-08
1.7710435e-11
-6.2289116e-08
1.9039847e-11
-8.5239242e-09
9.3690513e-12
4.0252048e-08
3.0555505e-08
-7.0338554e-12
3.0564334e-08
-1.9173116e-11
4.0269204e-08
-1.6015963e-11
-8.5217679e-09
4.4689959e-13
-6.230337e-08
1.6845616e-11
-6.2305503e-08
1.961579e-11
-8.5266833e-09
7.1208904e-12
4.0264554e-08
3.0562631e-08
-8.9006824e-12
3.0573238e-08
-1.7865286e-11
4.0278175e-08
-1.6306129e-11
-8.5233215e-09
3.4169938e-13
-6.2320013e-08
1.6804264e-11
-6.2321961e-08
1.8163807e-11
-8.5280371e-09
9.0054343e-12
4.0273718e-08
3.0571639e-08
-6.7846975e-12
3.0580029e-08
-1.8615255e-11
4.0290016e-08
-1.5643153e-11
-8.5262823e-09
1.6187986e-13
-6.2335807e-08
1.5982634e-11
-6.2337771e-08
1.8763072e-11
-8.5308065e-09
6.7799697e-12
4.0285711e-08
3.0578425e-08
-8.6363558e-12
3.0588669e-08
-1.7301457e-11
4.0298688e-08
-1.5905287e-11
-8.5276732e-09
9.3061135e-14
-6.23518e-08
1.5975984e-11
-6.2353648e-08
1.7344447e-11
-8.5321695e-09
8.6626478e-12
4.0294399e-08
3.058709e-08
-6.5280204e-12
3.0595203e-08
-1.8030813e-11
4.0310202e-08
-1.5218739e-11
-8.5304739e-09
-5.1342004e-14
-6.2366957e-08
1.5192715e-11
-6.2368882e-08
1.7961218e-11
-8.5349269e-09
6.4573322e-12
4.0305913e-08
3.0593553e-08
-8.3630821e-12
3.0603569e-08
-1.6708384e-11
4.0318553e-08
-1.545118e-11
-8.531726e-09
-8.5935167e-14
-6.2382317e-08
1.5215359e-11
-6.2384178e-08
1.6570417e-11
-8.5362768e-09
8.3353447e-12
4.0314154e-08
3.0601891e-08
-6.2618443e-12
3.0609838e-08
-1.7415978e-11
4.0329718e-08
-1.4741433e-11
-8.5343893e-09
-1.982559e-13
-6.239685e-08
1.4464621e-11
-6.239883e-08
1.7199395e-11
-8.5390005e-09
6.1480945e-12
4.0325215e-08
3.0608045e-08
-8.0801712e-12
3.0617921e-08
-1.6085165e-11
4.0337729e-08
-1.4945983e-11
-8.5355236e-09
-2.0302839e-13
-6.2411588e-08
1.4510763e-11
-6.2413539e-08
1.5831579e-11
-8.5403163e-09
8.0193278e-12
4.0333033e-08
3.0616066e-08
-5.9863664e-12
3.0623914e-08
-1.6772251e-11
4.0348526e-08
-1.4216066e-11
-8.5380686e-09
-2.8816413e-13
-6.2425505e-08
1.3786768e-11
-6.2427603e-08
1.6468399e-11
-8.542987e-09
5.8485521e-12
4.0343663e-08
3.062192e-08
-7.788635e-12
3.0631705e-08
-1.5435092e-11
4.0356178e-08
-1.439654e-11
-8.5391024e-09
-2.6848007e-13
-6.2439629e-08
1.385101e-11
-6.2441718e-08
1.5119673e-11
-8.5442508e-09
7.7115381e-12
4.0351076e-08
3.0629634e-08
-5.7030859e-12
3.0637415e-08
-1.6104322e-11
4.036659e-08
-1.3650873e-11
-8.5415447e-09
-3.3182002e-13
-6.2452937e-08
1.3148593e-11
-6.2455188e-08
1.5761019e-11
-8.5468523e-09
5.5560902e-12
4.0361291e-08
3.0635196e-08
-7.4904365e-12
3.0644908e-08
-1.4763792e-11
4.0373869e-08
-1.381202e-11
-8.542492e-09
-2.9313796e-13
-6.2466451e-08
1.3226344e-11
-6.2468703e-08
1.4428464e-11
-8.5480498e-09
7.4099257e-12
4.0368315e-08
3.0642608e-08
-5.4141742e-12
3.0650329e-08
-1.5418499e-11
4.0383884e-08
-1.3055516e-11
-8.5448439e-09
-3.3988237e-13
-6.2479157e-08
1.2541233e-11
-6.2481574e-08
1.5072033e-11
-8.5505697e-09
5.2690302e-12
4.0378128e-08
3.0647883e-08
-7.1879728e-12
3.0657519e-08
-1.4077918e-11
4.0390779e-08
-1.3202299e-11
-8.5457152e-09
-2.872388e-13
-6.2492067e-08
1.2628864e-11
-6.2494485e-08
1.3753627e-11
-8.5516901e-09
7.1132832e-12
4.0384773e-08
3.0654998e-08
-5.122057e-12
3.0662648e-08
-1.4721629e-11
4.0400389e-08
-1.2439797e-11
-8.547986e-09
-3.220216e-13
-6.2504175e-08
1.195775e-11
-6.2506755e-08
1.4398014e-11
-8.5541196e-09
4.9864576e-12
4.0394195e-08
3.065999e-08
-6.8837433e-12
3.0669534e-08
-1.3384294e-11
4.0406895e-08
-1.2576946e-11
-8.5487893e-09
-2.5977027e-13
-6.2516488e-08
1.2052594e-11
-6.2519063e-08
1.3092503e-11
-8.5551553e-09
6.8210732e-12
4.0400471e-08
3.0666813e-08
-4.829156e-12
3.067437e-08
-1.4020442e-11
4.0416097e-08
-1.1812889e-11
-8.5509858e-09
-2.8649417e-13
-6.2528004e-08
1.1393074e-11
-6.2530732e-08
1.3737041e-11
-8.5574885e-09
4.70805e-12
4.040951e-08
3.0671526e-08
-6.580151e-12
3.0680952e-08
-1.2689401e-11
4.0422211e-08
-1.1944669e-11
-8.5517268e-09
-2.1821999e-13
-6.2539726e-08
1.1493331e-11
-6.254244e-08
1.2443782e-11
-8.558435e-09
6.5332617e-12
4.0415425e-08
3.0678062e-08
-4.5377393e-12
3.0685496e-08
-1.3321155e-11
4.0431005e-08
-1.1182938e-11
-8.553854e-09
-2.4002868e-13
-6.2550659e-08
1.0843786e-11
-6.2553513e-08
1.3088386e-11
-8.5606689e-09
4.4339191e-12
4.0424089e-08
3.0682501e-08
-6.2793931e-12
3.0691778e-08
-1.1999101e-11
4.0436729e-08
-1.1313046e-11
-8.5545365e-09
-1.6856595e-13
-6.25618e-08
1.0948374e-11
-6.2564627e-08
1.1807191e-11
-8.561524e-09
6.250169e-12
4.042965e-08
3.0688753e-08
-4.2498419e-12
3.0696034e-08
-1.2629283e-11
4.0445119e-08
-1.0556911e-11
-8.5565979e-09
-1.8789592e-13
-6.2572159e-08
1.0307822e-11
-6.2575112e-08
1.2452192e-11
-8.5636577e-09
4.1644705e-12
4.0437948e-08
3.0692923e-08
-5.9834052e-12
3.0702019e-08
-1.1318503e-11
4.0450459e-08
-1.0688452e-11
-8.5572246e-09
-1.1540436e-13
-6.2582728e-08
1.0416224e-11
-6.258564e-08
1.1183183e-11
-8.5644211e-09
5.9723409e-12
4.0443163e-08
3.0698897e-08
-3.9672302e-12
3.0705993e-08
-1.1949558e-11
4.0458452e-08
-9.9405824e-12
-8.5592227e-09
-1.3407495e-13
-6.2592524e-08
9.7841602e-12
-6.2595548e-08
1.1829192e-11
-8.5664556e-09
3.9002864e-12
4.0451101e-08
3.0702802e-08
-5.6938413e-12
3.0711689e-08
-1.0651928e-11
4.0463414e-08
-1.0076098e-11
-8.5597954e-09
-6.2139194e-14
-6.2602535e-08
9.8962741e-12
-6.2605504e-08
1.0572682e-11
-8.5671286e-09
5.7004435e-12
4.0455977e-08
3.0708504e-08
-3.6913926e-12
3.0715387e-08
-1.1285926e-11
4.0471019e-08
-9.3386042e-12
-8.5617319e-09
-8.1454638e-14
-6.2611782e-08
9.272538e-12
-6.2614847e-08
1.1220474e-11
-8.5690661e-09
3.6420319e-12
4.0463565e-08
3.0712152e-08
-5.4120735e-12
3.07208e-08
-1.0002925e-11
4.0475614e-08
-9.4801209e-12
-8.5622518e-09
-1.1187528e-14
-6.2621248e-08
9.388546e-12
-6.2624244e-08
9.9768637e-12
-8.5696513e-09
5.4351814e-12
4.0468111e-08
3.0717588e-08
-3.4235458e-12
3.072423e-08
-1.0641573e-11
4.0482842e-08
-8.7546103e-12
-8.564128e-09
-3.203627e-14
-6.2629961e-08
8.7732002e-12
-6.2633039e-08
1.0627282e-11
-8.5714949e-09
3.3903836e-12
4.0475357e-08
3.0720984e-08
-5.1392042e-12
3.0729371e-08
-9.3743147e-12
4.0487081e-08
-8.9036955e-12
-8.5645959e-09
3.582574e-14
-6.2638897e-08
8.893461e-12
-6.2641894e-08
9.3969893e-12
-8.5719956e-09
5.1772367e-12
4.047958e-08
3.0726163e-08
-3.1646505e-12
3.0732542e-08
-1.0018989e-11
4.0493945e-08
-8.1913375e-12
-8.5664129e-09
1.2881219e-14
-6.2647091e-08
8.2866989e-12
-6.2650158e-08
1.0050878e-11
-8.5737494e-09
3.1459778e-12
4.0486494e-08
3.0729314e-08
-4.8760841e-12
3.0737419e-08
-8.7682543e-12
4.0497841e-08
-8.3491595e-12
-8.5668295e-09
7.7894223e-14
-6.2655516e-08
8.4116629e-12
-6.2658489e-08
8.8342809e-12
-8.5741693e-09
4.9272269e-12
4.0490405e-08
3.0734242e-08
-2.9154307e-12
3.0740341e-08
-9.4200274e-12
4.0504356e-08
-7.6507448e-12
-8.5685882e-09
5.2542496e-14
-6.2663209e-08
7.8137356e-12
-6.266624e-08
9.4924351e-12
-8.5758377e-09
2.9093758e-12
4.0496997e-08
3.0737157e-08
-4.6233335e-12
3.0744966e-08
-8.1863015e-12
4.0507922e-08
-7.8181287e-12
-8.5689541e-09
1.1448545e-13
-6.2671139e-08
7.9438817e-12
-6.2674067e-08
8.2898349e-12
-8.5761812e-09
4.6856771e-12
4.0500604e-08
3.0741844e-08
-2.6763956e-12
3.0747648e-08
-8.8459756e-12
4.0514102e-08
-7.1341255e-12
-8.5706554e-09
8.6602226e-14
-6.267835e-08
7.3550466e-12
-6.2681326e-08
8.9529656e-12
-8.5777689e-09
2.6810419e-12
4.0506886e-08
3.074453e-08
-4.3813661e-12
3.0752031e-08
-7.6294847e-12
4.0517353e-08
-7.3116051e-12
-8.5709712e-09
1.4541964e-13
-6.2685805e-08
7.490836e-12
-6.2688669e-08
7.7645669e-12
-8.5780403e-09
4.4530051e-12
4.05102e-08
3.0748984e-08
-2.4478632e-12
3.0754485e-08
-8.2976228e-12
4.0523213e-08
-6.6422112e-12
-8.5726162e-09
1.1501816e-13
-6.2692552e-08
6.9113191e-12
-6.2695455e-08
8.4332819e-12
-8.5795521e-09
2.4613333e-12
4.0516181e-08
3.075145e-08
-4.1504123e-12
3.0758637e-08
-7.0983697e-12
4.0526164e-08
-6.8300756e-12
-8.5728825e-09
1.7077453e-13
-6.2699551e-08
7.0531651e-12
-6.2702336e-08
7.2591797e-12
-8.5797561e-09
4.2295148e-12
4.0519214e-08
3.0755681e-08
-2.2299834e-12
3.0760873e-08
-7.7753267e-12
4.0531719e-08
-6.1752646e-12
-8.5744723e-09
1.3796438e-13
-6.2705855e-08
6.4831382e-12
-6.2708671e-08
7.9339732e-12
-8.5811968e-09
2.2504961e-12
4.0524906e-08
3.0757936e-08
-3.930543e-12
3.0764804e-08
-6.5931239e-12
4.0534384e-08
-6.3735995e-12
-8.5746901e-09
1.9080763e-13
-6.2712417e-08
6.6313861e-12
-6.271511e-08
6.7741507e-12
-8.5813377e-09
4.0153967e-12
4.0527667e-08
3.0761953e-08
-2.0227603e-12
3.0766833e-08
-7.2790762e-12
4.053965e-08
-5.7331613e-12
-8.5762257e-09
1.5576341e-13
-6.2718296e-08
6.0709522e-12
-6.2721015e-08
7.4554003e-12
-8.5827122e-09
2.0486683e-12
4.0533083e-08
3.0764006e-08
-3.7216911e-12
3.0770556e-08
-6.1135772e-12
4.0542045e-08
-5.9418862e-12
-8.5763959e-09
2.0589626e-13
-6.2724443e-08
6.2258682e-12
-6.2727034e-08
6.3097318e-12
-8.5827943e-09
3.8107327e-12
4.0535585e-08
3.0767818e-08
-1.8260737e-12
3.0772388e-08
-6.8085494e-12
4.0547037e-08
-5.3154635e-12
-8.5778788e-09
1.6883309e-13
-6.2729917e-08
5.6750554e-12
-6.273253e-08
6.9977013e-12
-8.5841071e-09
1.8558853e-12
4.0540735e-08
3.0769679e-08
-3.5236746e-12
3.0775912e-08
-5.6592774e-12
4.0549175e-08
-5.5343642e-12
-8.5780023e-09
2.1649154e-13
-6.2735667e-08
5.8368226e-12
-6.2738149e-08
5.865959e-12
-8.5841347e-09
3.6155041e-12
4.0542988e-08
3.0773295e-08
-1.6396995e-12
3.0777558e-08
-6.363168e-12
4.0553908e-08
-4.9214837e-12
-8.5794339e-09
1.7764595e-13
-6.2740756e-08
5.2955821e-12
-6.2743257e-08
6.5608049e-12
-8.5853901e-09
1.6720891e-12
4.0547885e-08
3.0774972e-08
-3.3362147e-12
3.0780895e-08
-5.2295415e-12
4.0555803e-08
-5.1502405e-12
-8.5795121e-09
2.2308193e-13
-6.2746128e-08
5.4643007e-12
-6.2748497e-08
5.4426687e-12
-8.5853671e-09
3.4296015e-12
4.0549901e-08
3.0778402e-08
-1.4633285e-12
3.0782364e-08
-5.9421452e-12
4.0560292e-08
-4.5503403e-12
-8.5808938e-09
1.8269757e-13
-6.2750852e-08
4.9325097e-12
-6.2753238e-08
6.1444486e-12
-8.5865693e-09
1.4971378e-12
4.0554556e-08
3.0779904e-08
-3.1589548e-12
3.0785523e-08
-4.8235016e-12
4.0561958e-08
-4.7885521e-12
-8.5809278e-09
2.2616639e-13
-6.2755866e-08
5.1082002e-12
-6.2758119e-08
5.039517e-12
-8.5864995e-09
3.2528357e-12
4.0556345e-08
3.0783158e-08
-1.2965823e-12
3.0786826e-08
-5.5445301e-12
4.0566216e-08
-4.2010053e-12
-8.5822614e-09
1.8448376e-13
-6.2760242e-08
4.5856668e-12
-6.276251e-08
5.7481998e-12
-8.5876523e-09
1.330817e-12
4.0560771e-08
3.0784493e-08
-2.9914765e-12
3.0789818e-08
-4.4401455e-12
4.0567666e-08
-4.4482111e-12
-8.5822525e-09
2.2623507e-13
-6.2764915e-08
4.7682758e-12
-6.2767052e-08
4.6560015e-12
-8.5875391e-09
3.084949e-12
4.0562344e-08
3.0787579e-08
-1.1390297e-12
3.0790963e-08
-5.169245e-12
4.0571706e-08
-3.8723454e-12
-8.5835395e-09
1.8348356e-13
-6.2768962e-08
4.2547462e-12
-6.2771113e-08
5.3714785e-12
-8.5886462e-09
1.1728501e-12
4.0566551e-08
3.0788756e-08
-2.8333147e-12
3.0793796e-08
-4.0783526e-12
4.0572952e-08
-4.1280417e-12
-8.5834892e-09
2.2375455e-13
-6.2773313e-08
4.4441543e-12
-6.2775333e-08
4.2914838e-12
-8.5884928e-09
2.9256259e-12
4.0567919e-08
3.0791682e-08
-9.9019921e-13
3.0794792e-08
-4.8151206e-12
4.0576786e-08
-3.5631566e-12
-8.5847314e-09
1.8014779e-13
-6.2777047e-08
3.9393193e-12
-6.2779083e-08
5.0135795e-12
-8.5895575e-09
1.0229087e-12
4.0571918e-08
3.079271e-08
-2.6839695e-12
3.0797477e-08
-3.7369254e-12
4.0577841e-08
-3.826812e-12
-8.584641e-09
2.1915868e-13
-6.2781092e-08
4.1353482e-12
-6.2782999e-08
3.9452121e-12
-8.5893668e-09
2.7745037e-12
4.057309e-08
3.0795485e-08
-8.4959087e-13
3.0798332e-08
-4.4809236e-12
4.0581481e-08
-3.2721918e-12
-8.58584e-09
1.7489125e-13
-6.278453e-08
3.6388522e-12
-6.2786453e-08
4.6736946e-12
-8.5903922e-09
8.8062319e-13
4.0576891e-08
3.079637e-08
-2.5429174e-12
3.0800875e-08
-3.4146154e-12
4.0582354e-08
-3.5432601e-12
-8.5857111e-09
2.1284309e-13
-6.2788286e-08
3.8412734e-12
-6.2790081e-08
3.6163419e-12
-8.5901668e-09
2.6311826e-12
4.0577878e-08
3.0799001e-08
-7.1668645e-13
3.0801597e-08
-4.1653814e-12
4.0585812e-08
-2.9981859e-12
-8.5868686e-09
1.6808855e-13
-6.2791443e-08
3.3527224e-12
-6.2793257e-08
4.3509336e-12
-8.5911556e-09
7.4559087e-13
4.0581491e-08
3.0799751e-08
-2.4096216e-12
3.0804007e-08
-3.1101459e-12
4.0586514e-08
-3.2761149e-12
-8.5867026e-09
2.051614e-13
-6.2794924e-08
3.5612653e-12
-6.2796613e-08
3.3039568e-12
-8.590898e-09
2.4952342e-12
4.0582301e-08
3.0802247e-08
-5.9095767e-13
3.0804604e-08
-3.8672037e-12
4.0589799e-08
-2.7398735e-12
-8.5878203e-09
1.6007206e-13
-6.2797815e-08
3.0802346e-12
-6.2799524e-08
4.0443434e-12
-8.5918528e-09
6.1738539e-13
4.0585736e-08
3.0802869e-08
-2.283539e-12
3.0806887e-08
-2.8222308e-12
4.0590339e-08
-3.0241142e-12
-8.5876185e-09
1.9642505e-13
-6.2801035e-08
3.2945946e-12
-6.2802622e-08
3.0070861e-12
-8.5915652e-09
2.3662103e-12
4.0586378e-08
3.0805235e-08
-4.7187347e-13
3.0807365e-08
-3.5850985e-12
4.0593461e-08
-2.4960048e-12
-8.5886981e-09
1.5113223e-13
-6.2803673e-08
2.820636e-12
-6.2805282e-08
3.7529257e-12
-8.5924883e-09
4.9556392e-13
4.0589643e-08
3.0805735e-08
-2.1641273e-12
3.0809529e-08
-2.5495902e-12
4.0593847e-08
-2.786017e-12
-8.5884619e-09
1.8690392e-13
-6.2806646e-08
3.0404819e-12
-6.2808136e-08
2.7247222e-12
-8.5921725e-09
2.2436496e-12
4.0590125e-08
3.0807979e-08
-3.589065e-13
3.0809893e-08
-3.3177869e-12
4.0596815e-08
-2.2653575e-12
-8.5895048e-09
1.415187e-13
-6.2809044e-08
2.5731308e-12
-6.2810559e-08
3.4756531e-12
-8.5930659e-09
3.796734e-13
4.0593229e-08
3.0808363e-08
-2.0508503e-12
3.0811944e-08
-2.2909627e-12
4.0597056e-08
-2.5606152e-12
-8.5892356e-09
1.7682793e-13
-6.2811782e-08
2.7981118e-12
-6.281318e-08
2.455835e-12
-8.5927238e-09
2.1270843e-12
4.0593559e-08
3.081049e-08
-2.5153682e-13
3.0812201e-08
-3.0640146e-12
4.0599877e-08
-2.0467458e-12
-8.5902434e-09
1.3144269e-13
-6.2813951e-08
2.336894e-12
-6.2815377e-08
3.2114827e-12
-8.5935893e-09
2.692568e-13
4.0596509e-08
3.0810764e-08
-1.943183e-12
3.0814144e-08
-2.0451164e-12
4.0599979e-08
-2.3467406e-12
-8.5899423e-09
1.6639019e-13
-6.2816465e-08
2.5666468e-12
-6.2817777e-08
2.1993856e-12
-8.5932224e-09
2.0160456e-12
4.0596693e-08
3.081278e-08
-1.492573e-13
3.0814298e-08
-2.8225611e-12
4.0602661e-08
-1.8390275e-12
-8.5909165e-09
1.2108037e-13
-6.2818416e-08
2.111084e-12
-6.2819759e-08
2.9593697e-12
-8.5940616e-09
1.6385831e-13
4.0599496e-08
3.0812948e-08
-1.8406145e-12
3.0816139e-08
-1.8108564e-12
4.0602632e-08
-2.1432722e-12
-8.5905848e-09
1.5575044e-13
-6.2820715e-08
2.3452379e-12
-6.2821949e-08
1.9543383e-12
-8.5936712e-09
1.9100686e-12
4.0599541e-08
3.0814858e-08
-5.1575786e-14
3.0816196e-08
-2.592247e-12
4.0605181e-08
-1.6411093e-12
-8.5915267e-09
1.1057608e-13
-6.2822458e-08
1.894853e-12
-6.2823724e-08
2.7182779e-12
-8.5944857e-09
6.3027786e-14
4.0602204e-08
3.0814925e-08
-1.7426513e-12
3.0817938e-08
-1.587032e-12
4.0605026e-08
-1.9491398e-12
-8.5911654e-09
1.4503812e-13
-6.2824553e-08
2.1330359e-12
-6.2825713e-08
1.7196708e-12
-8.5940729e-09
1.8086972e-12
4.0602115e-08
3.0816734e-08
4.1981109e-14
3.0817901e-08
-2.3719401e-12
4.0607448e-08
-1.4519508e-12
-8.5920762e-09
1.0004599e-13
-6.2826096e-08
1.6873577e-12
-6.2827291e-08
2.4871895e-12
-8.5948639e-09
-3.3675146e-14
4.0604644e-08
3.0816704e-08
-1.6488209e-12
3.0819549e-08
-1.3725421e-12
4.0607172e-08
-1.7633277e-12
-8.5916864e-09
1.343566e-13
-6.2827995e-08
1.929201e-12
-6.2829087e-08
1.4943835e-12
-8.5944298e-09
1.7114871e-12
4.0604427e-08
3.0818415e-08
1.3186641e-13
3.0819423e-08
-2.1605607e-12
4.0609473e-08
-1.2705671e-12
-8.5925672e-09
8.9581753e-14
-6.2829346e-08
1.4877692e-12
-6.2830476e-08
2.2651147e-12
-8.5951984e-09
-1.2667809e-13
4.0606826e-08
3.0818293e-08
-1.5586725e-12
3.0820981e-08
-1.1663397e-12
4.0609081e-08
-1.5848772e-12
-8.5921498e-09
1.2378662e-13
-6.2831056e-08
1.7329124e-12
-6.2832086e-08
1.2775084e-12
-8.5947438e-09
1.6180091e-12
4.0606486e-08
3.0819911e-08
2.1851048e-13
3.0820768e-08
-1.9570857e-12
4.0611265e-08
-1.0960312e-12
-8.5930018e-09
7.9254951e-14
-6.2832223e-08
1.2952807e-12
-6.2833294e-08
2.0510989e-12
-8.5954909e-09
-2.1639194e-13
4.0608761e-08
3.0819699e-08
-1.4717796e-12
3.0822239e-08
-9.6743605e-13
4.061076e-08
-1.4128884e-12
-8.5925576e-09
1.133906e-13
-6.283375e-08
1.5433756e-12
-6.2834725e-08
1.0681163e-12
-8.5950166e-09
1.527853e-12
4.0608301e-08
3.0821226e-08
3.0231939e-13
3.0821942e-08
-1.7605519e-12
4.0612831e-08
-9.2747581e-13
-8.5933816e-09
6.9120012e-14
-6.2834738e-08
1.1091168e-12
-6.2835756e-08
1.8442313e-12
-8.5957431e-09
-3.0320855e-13
4.0610456e-08
3.0820927e-08
-1.3877417e-12
3.0823329e-08
-7.7490346e-13
4.0612218e-08
-1.2465224e-12
-8.5929114e-09
1.0321576e-13
-6.2836089e-08
1.359832e-12
-6.2837014e-08
8.6532494e-13
-8.5952497e-09
1.44063e-12
4.0609881e-08
3.0822367e-08
3.8367311e-13
3.082295e-08
-1.5700601e-12
4.061418e-08
-7.6409463e-13
-8.5937084e-09
5.9218489e-14
-6.2836904e-08
9.2854052e-13
-6.2837875e-08
1.6436513e-12
-8.5959562e-09
-3.8749738e-13
4.0611919e-08
3.0821984e-08
-1.3061857e-12
3.0824256e-08
-5.8787939e-13
4.0613461e-08
-1.0850022e-12
-8.5932127e-09
9.3297873e-14
-6.2838083e-08
1.1815653e-12
-6.2838965e-08
6.6830553e-13
-8.5954441e-09
1.3559753e-12
4.0611231e-08
3.0823339e-08
4.6292367e-13
3.0823798e-08
-1.3847779e-12
4.0615317e-08
-6.0514443e-13
-8.5939835e-09
4.9581872e-14
-6.283873e-08
7.5286178e-13
-6.2839659e-08
1.4485557e-12
-8.5961313e-09
-4.6960312e-13
4.0613157e-08
3.0822874e-08
-1.2267681e-12
3.0825024e-08
-4.0557006e-13
4.0614495e-08
-9.2761468e-13
-8.593463e-09
8.3665192e-14
-6.2839742e-08
1.0079098e-12
-6.2840585e-08
4.7628975e-13
-8.595601e-09
1.2735514e-12
4.0612359e-08
3.0824147e-08
5.403938e-13
3.0824489e-08
-1.2039436e-12
4.0616248e-08
-4.4994643e-13
-8.5942082e-09
4.0236173e-14
-6.2840224e-08
5.814443e-13
-6.2841118e-08
1.258206e-12
-8.5962693e-09
-5.4984265e-13
4.0614175e-08
3.0823601e-08
-1.1491764e-12
3.0825637e-08
-2.2725368e-13
4.0615325e-08
-7.7371251e-13
-8.5936634e-09
7.4341713e-14
-6.2841074e-08
8.3825793e-13
-6.2841883e-08
2.8857704e-13
-8.5957211e-09
1.1930503e-12
4.061327e-08
3.0824793e-08
6.1637448e-13
3.0825026e-08
-1.0268703e-12
4.0616977e-08
-2.9788809e-13
-8.5943836e-09
3.1204703e-14
-6.2841394e-08
4.1371374e-13
-6.2842258e-08
1.0719352e-12
-8.5963708e-09
-6.2850247e-13
4.0614977e-08
3.0824169e-08
-1.0731312e-12
3.0826098e-08
-5.2284678e-14
4.0615955e-08
-6.2271586e-13
-8.593815e-09
6.5350323e-14
-6.2842084e-08
6.7206792e-13
-6.2842866e-08
1.0454221e-13
-8.5958049e-09
1.1141967e-12
4.0613967e-08
3.0825282e-08
6.911233e-13
3.0825412e-08
-8.5294961e-13
4.0617507e-08
-1.4842587e-13
-8.5945108e-09
2.2510904e-14
-6.2842247e-08
2.4916558e-13
-6.2843084e-08
8.8915601e-13
-8.5964365e-09
-7.05835e-13
4.0615569e-08
3.0824581e-08
-9.9838775e-13
3.0826409e-08
1.1990181e-13
4.0616388e-08
-4.7411516e-13
-8.5939187e-09
5.6716233e-14
-6.2842779e-08
5.0887255e-13
-6.2843538e-08
-7.6357035e-14
-8.5958529e-09
1.0367516e-12
4.0614456e-08
3.0825617e-08