/*--------------------------------*- C++ -*----------------------------------*\
| =========                 |                                                 |
| \\      /  F ield         | OpenFOAM: The Open Source CFD Toolbox           |
|  \\    /   O peration     | Version:  5.x                                   |
|   \\  /    A nd           | Web:      www.OpenFOAM.org                      |
|    \\/     M anipulation  |                                                 |
\*---------------------------------------------------------------------------*/
FoamFile
{
    version     2.0;
    format      ascii;
    class       volSymmTensorField;
    location    "5";
    object      sigma_0;
}
// * * * * * * * * * * * * * * * * * * * * * * * * * * * * * * * * * * * * * //

dimensions      [0 2 -2 0 0 0 0];

internalField   nonuniform List<symmTensor> 
1920
(
(0.002138875 0.012569625 0 -0.0079668181 0 0)
(-0.00041392205 0.0046744298 0 0.0014807767 0 0)
(-0.0014618684 0.0030897479 0 0.0010930546 0 0)
(-0.0010068362 0.00098729716 0 0.0010175947 0 0)
(-0.0010068044 -0.00098730737 0 0.0010175626 0 0)
(-0.0014618828 -0.0030896944 0 0.0010930698 0 0)
(-0.0004139253 -0.0046744173 0 0.0014807806 0 0)
(0.0021388738 -0.012569626 0 -0.0079668146 0 0)
(0.0043688808 0.0085185257 0 -0.0041105526 0 0)
(0.00042060234 0.0016318343 0 0.00055141595 0 0)
(-0.0027328535 0.00049340108 0 0.002292898 0 0)
(-0.002665769 0.00030597547 0 0.0024273921 0 0)
(-0.0026657578 -0.00030597848 0 0.0024273774 0 0)
(-0.0027328765 -0.00049330973 0 0.0022929232 0 0)
(0.00042060382 -0.0016318332 0 0.00055141033 0 0)
(0.0043688807 -0.0085185289 0 -0.0041105528 0 0)
(0.0038005502 0.0072835753 0 -0.0050063712 0 0)
(0.00098568093 0.00086268988 0 -0.00055194767 0 0)
(-0.0022320115 0.00020632419 0 0.0019776739 0 0)
(-0.002768422 6.2886697e-05 0 0.0026303335 0 0)
(-0.0027684501 -6.2882639e-05 0 0.0026303656 0 0)
(-0.0022319715 -0.00020646431 0 0.0019776293 0 0)
(0.00098568594 -0.00086269866 0 -0.00055194994 0 0)
(0.0038005515 -0.0072835753 0 -0.0050063747 0 0)
(0.0029365251 0.0068029818 0 -0.004176057 0 0)
(0.0011010598 0.0013374281 0 -0.00094146071 0 0)
(-0.0015996061 0.0002438919 0 0.0014940355 0 0)
(-0.0025001172 9.4473693e-06 0 0.0024610867 0 0)
(-0.002500102 -9.4536971e-06 0 0.0024610708 0 0)
(-0.0015996357 -0.00024380598 0 0.0014940662 0 0)
(0.001101065 -0.0013374284 0 -0.00094146682 0 0)
(0.0029365282 -0.0068029814 0 -0.0041760598 0 0)
(0.0021864804 0.0065037677 0 -0.0031032384 0 0)
(0.000997917 0.0018918575 0 -0.00096951651 0 0)
(-0.0010952763 0.0006260694 0 0.0010240338 0 0)
(-0.0021254253 8.6086554e-05 0 0.0020981879 0 0)
(-0.0021255057 -8.6090838e-05 0 0.0020982714 0 0)
(-0.0010956487 -0.00062580748 0 0.0010244034 0 0)
(0.00099792064 -0.0018918593 0 -0.00096952014 0 0)
(0.002186494 -0.0065037681 0 -0.0031032532 0 0)
(0.001656354 0.0063005398 0 -0.0023816121 0 0)
(0.00083235917 0.002446348 0 -0.00088652636 0 0)
(-0.00090563661 0.00082942947 0 0.00084528338 0 0)
(-0.0015277618 0.00022310112 0 0.0015089279 0 0)
(-0.0015277194 -0.00022312315 0 0.001508882 0 0)
(-0.00090515886 -0.00082985845 0 0.00084480968 0 0)
(0.00083238688 -0.0024463364 0 -0.0008865542 0 0)
(0.0016563538 -0.006300533 0 -0.0023816106 0 0)
(0.0011303039 0.0060997678 0 -0.0017591511 0 0)
(0.00063091887 0.0029858387 0 -0.00075011196 0 0)
(-0.00052968417 0.001283198 0 0.00047501623 0 0)
(-0.0011746943 0.00033879992 0 0.0011651061 0 0)
(-0.0011746561 -0.0003388181 0 0.0011650688 0 0)
(-0.00052965465 -0.0012832069 0 0.00047498575 0 0)
(0.00063093774 -0.002985828 0 -0.00075012974 0 0)
(0.0011303071 -0.006099756 0 -0.0017591541 0 0)
(0.00079504813 0.005973376 0 -0.0013751133 0 0)
(0.00049633667 0.0032635265 0 -0.00065533839 0 0)
(-0.00033722836 0.0015953696 0 0.00028090448 0 0)
(-0.00087539694 0.00044469209 0 0.00087166675 0 0)
(-0.00087545727 -0.00044467654 0 0.00087172601 0 0)
(-0.00033724017 -0.0015953303 0 0.00028091636 0 0)
(0.00049633737 -0.0032635472 0 -0.000655341 0 0)
(0.00079504808 -0.0059733646 0 -0.0013751121 0 0)
(0.00054890581 0.0058865534 0 -0.0010982143 0 0)
(0.00035580759 0.00353257 0 -0.00054619753 0 0)
(-0.00022267335 0.0018195471 0 0.0001602453 0 0)
(-0.00064074483 0.00053334877 0 0.00063843122 0 0)
(-0.0006406353 -0.00053339575 0 0.00063832379 0 0)
(-0.00022263347 -0.0018195913 0 0.00016020549 0 0)
(0.00035583728 -0.003532537 0 -0.00054622689 0 0)
(0.00054891972 -0.0058865397 0 -0.0010982275 0 0)
(0.00036998257 0.0058258849 0 -0.0009004165 0 0)
(0.00025736499 0.0037018035 0 -0.00046965458 0 0)
(-0.00014237521 0.0019997163 0 7.28344e-05 0 0)
(-0.00044082499 0.00061335708 0 0.00043785457 0 0)
(-0.00044096101 -0.000613308 0 0.00043798968 0 0)
(-0.00014238681 -0.0019996698 0 7.2846842e-05 0 0)
(0.00025736335 -0.0037018144 0 -0.0004696533 0 0)
(0.00036998137 -0.005825867 0 -0.00090041373 0 0)
(0.00024299784 0.0057846882 0 -0.00076219825 0 0)
(0.00018318524 0.0038213076 0 -0.00041083517 0 0)
(-8.8794098e-05 0.0021357712 0 1.3011946e-05 0 0)
(-0.0002995742 0.00067286871 0 0.00029518073 0 0)
(-0.00029949696 -0.00067291062 0 0.00029510357 0 0)
(-8.8766156e-05 -0.0021358169 0 1.2983146e-05 0 0)
(0.00018320608 -0.0038212768 0 -0.00041085512 0 0)
(0.0002430109 -0.0057846703 0 -0.00076220963 0 0)
(0.00015654929 0.00575763 0 -0.00066918439 0 0)
(0.00012620188 0.0039082614 0 -0.0003643784 0 0)
(-5.4179072e-05 0.0022344188 0 -2.6562982e-05 0 0)
(-0.00019999989 0.00071658323 0 0.00019411125 0 0)
(-0.00019995648 -0.00071660514 0 0.00019406801 0 0)
(-5.4189802e-05 -0.0022343812 0 -2.6551704e-05 0 0)
(0.00012619708 -0.0039082645 0 -0.00036437362 0 0)
(0.00015654694 -0.0057576083 0 -0.00066918024 0 0)
(9.9300374e-05 0.0057402462 0 -0.00060813102 0 0)
(8.4844798e-05 0.003968089 0 -0.00032999197 0 0)
(-3.2386327e-05 0.0023036809 0 -5.208146e-05 0 0)
(-0.00013120725 0.00074794781 0 0.00012405094 0 0)
(-0.0001313499 -0.00074790524 0 0.00012419282 0 0)
(-3.2374801e-05 -0.002303715 0 -5.2093716e-05 0 0)
(8.4856108e-05 -0.0039680633 0 -0.00033000236 0 0)
(9.9307962e-05 -0.0057402254 0 -0.0006081362 0 0)
(6.188101e-05 0.0057292034 0 -0.00056853049 0 0)
(5.5939689e-05 0.0040078626 0 -0.00030560618 0 0)
(-1.886678e-05 0.0023513755 0 -6.8275115e-05 0 0)
(-8.5219594e-05 0.00076961169 0 7.7077302e-05 0 0)
(-8.4977899e-05 -0.0007697254 0 7.6834765e-05 0 0)
(-1.8876641e-05 -0.0023513541 0 -6.8265079e-05 0 0)
(5.5931541e-05 -0.0040078616 0 -0.0003055975 0 0)
(6.1879139e-05 -0.0057291815 0 -0.00056852661 0 0)
(3.7789685e-05 0.0057222967 0 -0.00054321643 0 0)
(3.6187261e-05 0.0040338403 0 -0.00028873006 0 0)
(-1.0664543e-05 0.0023835268 0 -7.8328917e-05 0 0)
(-5.452108e-05 0.000784463 0 4.566525e-05 0 0)
(-5.4918701e-05 -0.0007843049 0 4.6064076e-05 0 0)
(-1.0664445e-05 -0.0023835494 0 -7.8329555e-05 0 0)
(3.6189544e-05 -0.0040338228 0 -0.00028873154 0 0)
(3.7792325e-05 -0.0057222757 0 -0.00054321642 0 0)
(2.2556715e-05 0.0057180678 0 -0.00052732043 0 0)
(2.2970788e-05 0.0040504771 0 -0.00027731309 0 0)
(-5.7654122e-06 0.0024049085 0 -8.4471616e-05 0 0)
(-3.3730371e-05 0.00079473545 0 2.437535e-05 0 0)
(-3.3146208e-05 -0.0007950121 0 2.3788645e-05 0 0)
(-5.7743179e-06 -0.0024049017 0 -8.4462889e-05 0 0)
(2.2962102e-05 -0.0040504734 0 -0.00027730362 0 0)
(2.2554133e-05 -0.0057180472 0 -0.00052731574 0 0)
(1.3084639e-05 0.0057155368 0 -0.00051750772 0 0)
(1.4271851e-05 0.0040609842 0 -0.00026971913 0 0)
(-2.9368419e-06 0.0024188073 0 -8.8113115e-05 0 0)
(-2.057182e-05 0.00080141979 0 1.0883581e-05 0 0)
(-2.1038894e-05 -0.00080122526 0 1.1352288e-05 0 0)
(-2.9422277e-06 -0.0024188215 0 -8.8108174e-05 0 0)
(1.4268356e-05 -0.0040609741 0 -0.000269715 0 0)
(1.3083715e-05 -0.0057155174 0 -0.00051750428 0 0)
(7.3276042e-06 0.0057140707 0 -0.00051158931 0 0)
(8.6689458e-06 0.0040674648 0 -0.00026478084 0 0)
(-1.3431308e-06 0.0024277365 0 -9.0225594e-05 0 0)
(-1.2513171e-05 0.0008056227 0 2.6083087e-06 0 0)
(-1.2162365e-05 -0.00080580513 0 2.2554799e-06 0 0)
(-1.3505495e-06 -0.0024277396 0 -9.0218576e-05 0 0)
(8.6613646e-06 -0.0040674603 0 -0.00026477252 0 0)
(7.3247262e-06 -0.0057140526 0 -0.0005115844 0 0)
(3.8982083e-06 0.0057132546 0 -0.00050809611 0 0)
(5.1130189e-06 0.0040714036 0 -0.00026161635 0 0)
(-4.9399099e-07 0.0024333243 0 -9.1396673e-05 0 0)
(-7.0554019e-06 0.0008085127 0 -2.9891346e-06 0 0)
(-7.3038975e-06 -0.00080841237 0 -2.73979e-06 0 0)
(-5.0064587e-07 -0.002433333 0 -9.1390419e-05 0 0)
(5.1071196e-06 -0.0040713983 0 -0.00026160999 0 0)
(3.8953932e-06 -0.0057132376 0 -0.00050809111 0 0)
(1.9466797e-06 0.0057128324 0 -0.00050612987 0 0)
(2.9141698e-06 0.0040737222 0 -0.00025964082 0 0)
(-6.6643525e-08 0.0024367745 0 -9.2019238e-05 0 0)
(-3.9406289e-06 0.00081021716 0 -6.1897521e-06 0 0)
(-3.8067272e-06 -0.00081029978 0 -6.3245238e-06 0 0)
(-7.2415139e-08 -0.0024367824 0 -9.2014002e-05 0 0)
(2.9084067e-06 -0.0040737177 0 -0.00025963447 0 0)
(1.9442861e-06 -0.0057128167 0 -0.00050612565 0 0)
(8.2991321e-07 0.0057126276 0 -0.0005050213 0 0)
(1.5775493e-06 0.0040750575 0 -0.00025842831 0 0)
(1.2253325e-07 0.0024388376 0 -9.2322216e-05 0 0)
(-1.9061524e-06 0.00081135143 0 -8.2768716e-06 0 0)
(-2.1053704e-06 -0.00081126649 0 -8.0765172e-06 0 0)
(1.16702e-07 -0.0024388432 0 -9.2316787e-05 0 0)
(1.5714059e-06 -0.0040750547 0 -0.00025842183 0 0)
(8.2672514e-07 -0.0057126128 0 -0.00050501629 0 0)
(2.4675242e-07 0.0057125501 0 -0.0005044545 0 0)
(7.9435989e-07 0.0040757885 0 -0.00025770987 0 0)
(1.8673443e-07 0.0024400423 0 -9.2450896e-05 0 0)
(-9.5237686e-07 0.00081191529 0 -9.2594838e-06 0 0)
(-7.7155947e-07 -0.000812028 0 -9.4423651e-06 0 0)
(1.8213741e-07 -0.0024400509 0 -9.2446834e-05 0 0)
(7.9018986e-07 -0.0040757843 0 -0.00025770527 0 0)
(2.44469e-07 -0.0057125363 0 -0.00050445063 0 0)
(-3.3598919e-08 0.0057125421 0 -0.00050419235 0 0)
(3.4788557e-07 0.0040761669 0 -0.0002572961 0 0)
(1.8973631e-07 0.002440716 0 -9.2487763e-05 0 0)
(-2.3183116e-07 0.00081234671 0 -9.9977928e-06 0 0)
(-2.2983454e-07 -0.00081236311 0 -1.0000032e-05 0 0)
(1.8518048e-07 -0.0024407204 0 -9.2483619e-05 0 0)
(3.424478e-07 -0.0040761646 0 -0.0002572904 0 0)
(-3.6392696e-08 -0.0057125293 0 -0.00050418807 0 0)
(-1.5760336e-07 0.0057125664 0 -0.00050408468 0 0)
(1.0672072e-07 0.004076345 0 -0.00025706816 0 0)
(1.6595592e-07 0.0024410718 0 -9.2480985e-05 0 0)
(1.9488733e-08 0.00081251687 0 -1.0257325e-05 0 0)
(-8.6092108e-08 -0.00081246895 0 -1.0151134e-05 0 0)
(1.6198308e-07 -0.0024410793 0 -9.2477471e-05 0 0)
(1.034467e-07 -0.0040763414 0 -0.00025706457 0 0)
(-1.5985438e-07 -0.0057125543 0 -0.00050408107 0 0)
(-1.8881939e-07 0.0057125979 0 -0.00050406713 0 0)
(-1.2859248e-08 0.0040764166 0 -0.00025695285 0 0)
(1.3492848e-07 0.002441246 0 -9.2456499e-05 0 0)
(1.0770966e-07 0.00081258522 0 -1.034943e-05 0 0)
(1.2148102e-07 -0.00081260627 0 -1.0363583e-05 0 0)
(1.3137555e-07 -0.0024412503 0 -9.2453314e-05 0 0)
(-1.7216068e-08 -0.0040764143 0 -0.00025694825 0 0)
(-1.9110993e-07 -0.0057125865 0 -0.00050406363 0 0)
(-1.7801666e-07 0.0057126324 0 -0.0005040889 0 0)
(-7.5073705e-08 0.0040764365 0 -0.00025688928 0 0)
(1.0580908e-07 0.0024413159 0 -9.2429185e-05 0 0)
(1.5863836e-07 0.00081263234 0 -1.0402087e-05 0 0)
(1.4677298e-07 -0.0008126342 0 -1.0390385e-05 0 0)
(1.020284e-07 -0.0024413217 0 -9.2425772e-05 0 0)
(-7.8220594e-08 -0.0040764339 0 -0.00025688589 0 0)
(-1.8039284e-07 -0.0057126214 0 -0.00050408535 0 0)
(-1.5211126e-07 0.005712659 0 -0.00050412286 0 0)
(-8.33976e-08 0.0040764239 0 -0.00025687901 0 0)
(7.7562455e-08 0.0024413367 0 -9.2399699e-05 0 0)
(1.5794977e-07 0.00081264024 0 -1.0401799e-05 0 0)
(1.5898341e-07 -0.00081265108 0 -1.0403072e-05 0 0)
(7.4131749e-08 -0.0024413412 0 -9.2396604e-05 0 0)
(-8.796534e-08 -0.004076421 0 -0.00025687411 0 0)
(-1.5382701e-07 -0.0057126491 0 -0.00050412018 0 0)
(-1.2066711e-07 0.0057126832 0 -0.00050415987 0 0)
(-8.2809092e-08 0.0040763975 0 -0.00025687751 0 0)
(5.6658277e-08 0.0024413241 0 -9.2377078e-05 0 0)
(1.420301e-07 0.00081264356 0 -1.0385718e-05 0 0)
(1.4268885e-07 -0.00081265189 0 -1.038661e-05 0 0)
(5.3024655e-08 -0.0024413288 0 -9.2373702e-05 0 0)
(-8.6199532e-08 -0.0040763952 0 -0.00025687391 0 0)
(-1.223914e-07 -0.005712674 0 -0.00050415719 0 0)
(-9.3810794e-08 0.0057127005 0 -0.00050419115 0 0)
(-6.9264591e-08 0.0040763751 0 -0.00025688791 0 0)
(4.0220368e-08 0.0024413017 0 -9.2358633e-05 0 0)
(1.2508238e-07 0.00081263539 0 -1.0368361e-05 0 0)
(1.225357e-07 -0.00081264465 0 -1.0365953e-05 0 0)
(3.6711219e-08 -0.0024413054 0 -9.2355377e-05 0 0)
(-7.3085648e-08 -0.0040763735 0 -0.00025688384 0 0)
(-9.5721493e-08 -0.0057126915 0 -0.00050418838 0 0)
(-7.2624377e-08 0.0057127142 0 -0.00050421508 0 0)
(-5.9107285e-08 0.0040763567 0 -0.00025689598 0 0)
(2.6707194e-08 0.0024412748 0 -9.234323e-05 0 0)
(9.6662881e-08 0.00081262676 0 -1.0339374e-05 0 0)
(9.6171513e-08 -0.0008126345 0 -1.0339065e-05 0 0)
(2.3891233e-08 -0.0024412797 0 -9.2340653e-05 0 0)
(-6.2425527e-08 -0.0040763546 0 -0.00025689249 0 0)
(-7.429725e-08 -0.0057127062 0 -0.00050421261 0 0)
(-5.2945874e-08 0.0057127253 0 -0.00050423706 0 0)
(-4.5656356e-08 0.0040763384 0 -0.00025690746 0 0)
(1.9730868e-08 0.002441252 0 -9.2334844e-05 0 0)
(8.3712743e-08 0.00081261984 0 -1.0326013e-05 0 0)
(7.9357814e-08 -0.00081262594 0 -1.0321762e-05 0 0)
(1.6380626e-08 -0.0024412551 0 -9.2331715e-05 0 0)
(-4.9244065e-08 -0.0040763366 0 -0.00025690364 0 0)
(-5.4715309e-08 -0.0057127176 0 -0.00050423457 0 0)
(-4.0477832e-08 0.0057127336 0 -0.00050425077 0 0)
(-3.7462093e-08 0.0040763256 0 -0.0002569144 0 0)
(1.4181339e-08 0.0024412341 0 -9.2327928e-05 0 0)
(6.0535897e-08 0.00081260909 0 -1.0302358e-05 0 0)
(5.882281e-08 -0.00081261558 0 -1.0300788e-05 0 0)
(1.0911925e-08 -0.0024412375 0 -9.2324841e-05 0 0)
(-4.0695064e-08 -0.004076324 0 -0.000256911 0 0)
(-4.2086498e-08 -0.0057127268 0 -0.00050424848 0 0)
(-2.935885e-08 0.0057127399 0 -0.00050426309 0 0)
(-2.7971592e-08 0.0040763138 0 -0.00025692278 0 0)
(1.1716537e-08 0.0024412192 0 -9.2324424e-05 0 0)
(4.8532811e-08 0.0008126032 0 -1.0290059e-05 0 0)
(4.722619e-08 -0.00081260895 0 -1.028887e-05 0 0)
(8.6675437e-09 -0.002441222 0 -9.2321548e-05 0 0)
(-3.1288561e-08 -0.0040763123 0 -0.00025691925 0 0)
(-3.1027587e-08 -0.0057127334 0 -0.00050426081 0 0)
(-2.2373542e-08 0.0057127449 0 -0.00050427054 0 0)
(-2.2915865e-08 0.0040763061 0 -0.0002569273 0 0)
(8.2741191e-09 0.0024412066 0 -9.2320254e-05 0 0)
(3.56929e-08 0.00081259571 0 -1.0276949e-05 0 0)
(3.4226916e-08 -0.00081260089 0 -1.0275587e-05 0 0)
(5.255954e-09 -0.0024412094 0 -9.2317381e-05 0 0)
(-2.5929043e-08 -0.004076305 0 -0.00025692414 0 0)
(-2.3889896e-08 -0.0057127393 0 -0.00050426846 0 0)
(-1.712147e-08 0.0057127487 0 -0.00050427651 0 0)
(-1.7417619e-08 0.0040762992 0 -0.00025693212 0 0)
(6.7592814e-09 0.0024411964 0 -9.2318186e-05 0 0)
(2.922399e-08 0.00081259243 0 -1.0270319e-05 0 0)
(2.8577967e-08 -0.00081259744 0 -1.0269783e-05 0 0)
(4.0835656e-09 -0.0024411989 0 -9.2315632e-05 0 0)
(-2.0383348e-08 -0.0040762982 0 -0.00025692897 0 0)
(-1.865805e-08 -0.0057127434 0 -0.00050427447 0 0)
(-1.3196645e-08 0.0057127519 0 -0.00050428054 0 0)
(-1.4485326e-08 0.0040762946 0 -0.0002569349 0 0)
(5.2838497e-09 0.0024411884 0 -9.2316282e-05 0 0)
(2.3179428e-08 0.00081258807 0 -1.0264149e-05 0 0)
(2.1827816e-08 -0.00081259198 0 -1.0262873e-05 0 0)
(2.6832876e-09 -0.002441191 0 -9.23138e-05 0 0)
(-1.7202341e-08 -0.0040762938 0 -0.00025693204 0 0)
(-1.4606588e-08 -0.0057127473 0 -0.00050427867 0 0)
(-1.1105152e-08 0.0057127545 0 -0.00050428315 0 0)
(-1.1702639e-08 0.0040762907 0 -0.00025693722 0 0)
(4.3764272e-09 0.0024411819 0 -9.2315098e-05 0 0)
(1.9975788e-08 0.00081258605 0 -1.0260858e-05 0 0)
(1.9439173e-08 -0.00081259065 0 -1.026042e-05 0 0)
(2.084581e-09 -0.0024411842 0 -9.23129e-05 0 0)
(-1.4262791e-08 -0.0040762899 0 -0.0002569345 0 0)
(-1.2483736e-08 -0.0057127503 0 -0.00050428136 0 0)
(-8.9817264e-09 0.0057127568 0 -0.00050428522 0 0)
(-1.019257e-08 0.0040762878 0 -0.00025693873 0 0)
(3.8142494e-09 0.0024411765 0 -9.2314257e-05 0 0)
(1.7237487e-08 0.00081258354 0 -1.0258068e-05 0 0)
(1.6438831e-08 -0.0008125873 0 -1.0257333e-05 0 0)
(1.6537068e-09 -0.0024411788 0 -9.2312197e-05 0 0)
(-1.2523498e-08 -0.0040762872 0 -0.00025693628 0 0)
(-1.0223462e-08 -0.0057127531 0 -0.0005042836 0 0)
(-8.2574904e-09 0.0057127589 0 -0.00050428638 0 0)
(-8.8466964e-09 0.0040762855 0 -0.00025693974 0 0)
(3.3046199e-09 0.0024411719 0 -9.2313592e-05 0 0)
(1.5670105e-08 0.00081258201 0 -1.025645e-05 0 0)
(1.5205948e-08 -0.00081258608 0 -1.025607e-05 0 0)
(1.4162613e-09 -0.0024411739 0 -9.2311783e-05 0 0)
(-1.0968548e-08 -0.004076285 0 -0.00025693749 0 0)
(-9.4371386e-09 -0.0057127555 0 -0.00050428486 0 0)
(-7.1227349e-09 0.0057127608 0 -0.00050428739 0 0)
(-8.203303e-09 0.0040762836 0 -0.00025694045 0 0)
(3.0812316e-09 0.0024411684 0 -9.2313186e-05 0 0)
(1.4299979e-08 0.0008125802 0 -1.0255059e-05 0 0)
(1.3718388e-08 -0.00081258351 0 -1.0254531e-05 0 0)
(1.3603611e-09 -0.0024411704 0 -9.2311553e-05 0 0)
(-1.0106618e-08 -0.0040762833 0 -0.00025693845 0 0)
(-8.1604786e-09 -0.0057127578 0 -0.00050428604 0 0)
(-6.9231692e-09 0.0057127626 0 -0.00050428799 0 0)
(-7.5029104e-09 0.0040762821 0 -0.00025694088 0 0)
(2.7771532e-09 0.0024411647 0 -9.2312783e-05 0 0)
(1.3467773e-08 0.00081257896 0 -1.0254194e-05 0 0)
(1.3042091e-08 -0.00081258236 0 -1.025384e-05 0 0)
(1.2960827e-09 -0.0024411664 0 -9.2311371e-05 0 0)
(-9.1868534e-09 -0.0040762818 0 -0.00025693909 0 0)
(-7.8843863e-09 -0.00571276 0 -0.00050428675 0 0)
(-6.2473119e-09 0.0057127642 0 -0.00050428851 0 0)
(-7.2898185e-09 0.0040762808 0 -0.0002569412 0 0)
(2.6465162e-09 0.0024411623 0 -9.2312526e-05 0 0)
(1.2712115e-08 0.00081257748 0 -1.025343e-05 0 0)
(1.2267467e-08 -0.00081258027 0 -1.0253031e-05 0 0)
(1.3384546e-09 -0.002441164 0 -9.2311296e-05 0 0)
(-8.7754536e-09 -0.0040762805 0 -0.00025693963 0 0)
(-7.0763642e-09 -0.0057127619 0 -0.00050428742 0 0)
(-6.2603254e-09 0.005712766 0 -0.00050428887 0 0)
(-6.856202e-09 0.0040762796 0 -0.00025694139 0 0)
(2.4321119e-09 0.0024411591 0 -9.2312248e-05 0 0)
(1.2201116e-08 0.00081257641 0 -1.0252896e-05 0 0)
(1.1844962e-08 -0.00081257921 0 -1.0252601e-05 0 0)
(1.3280126e-09 -0.0024411605 0 -9.2311205e-05 0 0)
(-8.1350497e-09 -0.0040762793 0 -0.00025694003 0 0)
(-7.0109403e-09 -0.0057127638 0 -0.0005042879 0 0)
(-5.7801521e-09 0.0057127674 0 -0.00050428918 0 0)
(-6.825537e-09 0.0040762785 0 -0.00025694154 0 0)
(2.3347906e-09 0.0024411572 0 -9.2312051e-05 0 0)
(1.1723738e-08 0.00081257509 0 -1.0252416e-05 0 0)
(1.1398748e-08 -0.00081257741 0 -1.025213e-05 0 0)
(1.3862606e-09 -0.0024411586 0 -9.2311173e-05 0 0)
(-7.9349622e-09 -0.0040762783 0 -0.00025694037 0 0)
(-6.4139665e-09 -0.0057127656 0 -0.00050428834 0 0)
(-5.8775146e-09 0.0057127691 0 -0.00050428945 0 0)
(-6.4982878e-09 0.0040762775 0 -0.00025694165 0 0)
(2.1642503e-09 0.0024411543 0 -9.2311838e-05 0 0)
(1.1352229e-08 0.00081257412 0 -1.0252027e-05 0 0)
(1.108207e-08 -0.00081257644 0 -1.0251809e-05 0 0)
(1.3814021e-09 -0.0024411555 0 -9.2311111e-05 0 0)
(-7.4279628e-09 -0.0040762773 0 -0.00025694066 0 0)
(-6.44076e-09 -0.0057127674 0 -0.00050428871 0 0)
(-5.4766679e-09 0.0057127705 0 -0.00050428968 0 0)
(-6.5327479e-09 0.0040762766 0 -0.00025694174 0 0)
(2.0881036e-09 0.0024411526 0 -9.2311677e-05 0 0)
(1.1001429e-08 0.00081257288 0 -1.0251675e-05 0 0)
(1.0779937e-08 -0.00081257483 0 -1.0251488e-05 0 0)
(1.4321063e-09 -0.0024411537 0 -9.2311085e-05 0 0)
(-7.3253668e-09 -0.0040762763 0 -0.00025694091 0 0)
(-5.9406372e-09 -0.005712769 0 -0.00050428904 0 0)
(-5.6035617e-09 0.0057127722 0 -0.00050428991 0 0)
(-6.244554e-09 0.0040762756 0 -0.00025694183 0 0)
(1.9456098e-09 0.0024411499 0 -9.2311502e-05 0 0)
(1.0692333e-08 0.00081257197 0 -1.0251352e-05 0 0)
(1.0503244e-08 -0.00081257392 0 -1.0251209e-05 0 0)
(1.4184704e-09 -0.0024411509 0 -9.2311027e-05 0 0)
(-6.8914747e-09 -0.0040762754 0 -0.00025694114 0 0)
(-6.0101248e-09 -0.0057127707 0 -0.00050428935 0 0)
(-5.2337679e-09 0.0057127735 0 -0.0005042901 0 0)
(-6.2940161e-09 0.0040762748 0 -0.00025694191 0 0)
(1.8870472e-09 0.0024411483 0 -9.2311368e-05 0 0)
(1.0401591e-08 0.00081257078 0 -1.0251062e-05 0 0)
(1.0262665e-08 -0.00081257247 0 -1.0250953e-05 0 0)
(1.4552593e-09 -0.0024411492 0 -9.2310996e-05 0 0)
(-6.8361425e-09 -0.0040762745 0 -0.00025694134 0 0)
(-5.5590942e-09 -0.0057127722 0 -0.00050428963 0 0)
(-5.3676291e-09 0.0057127751 0 -0.00050429031 0 0)
(-6.016894e-09 0.0040762739 0 -0.00025694199 0 0)
(1.7663204e-09 0.0024411458 0 -9.2311221e-05 0 0)
(1.0122973e-08 0.0008125699 0 -1.0250773e-05 0 0)
(9.9991069e-09 -0.00081257158 0 -1.025069e-05 0 0)
(1.4304924e-09 -0.0024411466 0 -9.2310934e-05 0 0)
(-6.4473149e-09 -0.0040762737 0 -0.00025694153 0 0)
(-5.6504036e-09 -0.0057127738 0 -0.00050428991 0 0)
(-5.0099863e-09 0.0057127763 0 -0.00050429049 0 0)
(-6.0622612e-09 0.0040762731 0 -0.00025694208 0 0)
(1.7228769e-09 0.0024411443 0 -9.2311111e-05 0 0)
(9.8636532e-09 0.00081256877 0 -1.0250515e-05 0 0)
(9.7853946e-09 -0.00081257027 0 -1.0250464e-05 0 0)
(1.4532905e-09 -0.002441145 0 -9.2310898e-05 0 0)
(-6.417384e-09 -0.0040762728 0 -0.00025694171 0 0)
(-5.2285863e-09 -0.0057127752 0 -0.00050429015 0 0)
(-5.1421794e-09 0.0057127779 0 -0.00050429069 0 0)
(-5.78611e-09 0.0040762723 0 -0.00025694217 0 0)
(1.620108e-09 0.0024411419 0 -9.2310986e-05 0 0)
(9.60223e-09 0.00081256792 0 -1.0250245e-05 0 0)
(9.5251632e-09 -0.0008125694 0 -1.0250206e-05 0 0)
(1.4188069e-09 -0.0024411426 0 -9.2310831e-05 0 0)
(-6.0597932e-09 -0.004076272 0 -0.00025694188 0 0)
(-5.3324927e-09 -0.0057127768 0 -0.0005042904 0 0)
(-4.7899514e-09 0.0057127791 0 -0.00050429086 0 0)
(-5.8217057e-09 0.0040762715 0 -0.00025694226 0 0)
(1.5890335e-09 0.0024411404 0 -9.2310895e-05 0 0)
(9.3618256e-09 0.00081256684 0 -1.0250007e-05 0 0)
(9.3245539e-09 -0.00081256821 0 -1.0249995e-05 0 0)
(1.4293289e-09 -0.0024411411 0 -9.2310789e-05 0 0)
(-6.0452893e-09 -0.0040762712 0 -0.00025694203 0 0)
(-4.9310185e-09 -0.005712778 0 -0.00050429062 0 0)
(-4.9177197e-09 0.0057127806 0 -0.00050429106 0 0)
(-5.5443188e-09 0.0040762708 0 -0.00025694237 0 0)
(1.5010014e-09 0.0024411381 0 -9.2310788e-05 0 0)
(9.1117606e-09 0.00081256601 0 -1.0249752e-05 0 0)
(9.0649105e-09 -0.00081256735 0 -1.0249739e-05 0 0)
(1.3875594e-09 -0.0024411387 0 -9.2310719e-05 0 0)
(-5.7116971e-09 -0.0040762705 0 -0.00025694219 0 0)
(-5.0428825e-09 -0.0057127795 0 -0.00050429085 0 0)
(-4.5689533e-09 0.0057127817 0 -0.00050429123 0 0)
(-5.5698447e-09 0.00407627 0 -0.00025694247 0 0)
(1.4792312e-09 0.0024411367 0 -9.2310714e-05 0 0)
(8.8844604e-09 0.00081256499 0 -1.0249528e-05 0 0)
(8.8722252e-09 -0.00081256627 0 -1.0249539e-05 0 0)
(1.3882632e-09 -0.0024411373 0 -9.2310674e-05 0 0)
(-5.7071222e-09 -0.0040762697 0 -0.00025694233 0 0)
(-4.657123e-09 -0.0057127807 0 -0.00050429105 0 0)
(-4.6920035e-09 0.0057127832 0 -0.00050429143 0 0)
(-5.2920112e-09 0.0040762693 0 -0.00025694259 0 0)
(1.4029186e-09 0.0024411346 0 -9.2310622e-05 0 0)
(8.642915e-09 0.00081256417 0 -1.0249283e-05 0 0)
(8.6131847e-09 -0.00081256542 0 -1.0249285e-05 0 0)
(1.3416279e-09 -0.0024411351 0 -9.2310603e-05 0 0)
(-5.3922645e-09 -0.004076269 0 -0.00025694248 0 0)
(-4.7741716e-09 -0.0057127821 0 -0.00050429127 0 0)
(-4.3464984e-09 0.0057127842 0 -0.00050429159 0 0)
(-5.3090914e-09 0.0040762686 0 -0.00025694269 0 0)
(1.3875714e-09 0.0024411332 0 -9.2310559e-05 0 0)
(8.4257517e-09 0.00081256322 0 -1.0249071e-05 0 0)
(8.4265886e-09 -0.00081256445 0 -1.0249093e-05 0 0)
(1.3348386e-09 -0.0024411338 0 -9.2310556e-05 0 0)
(-5.3941982e-09 -0.0040762683 0 -0.00025694261 0 0)
(-4.4012167e-09 -0.0057127833 0 -0.00050429145 0 0)
(-4.4654719e-09 0.0057127856 0 -0.00050429178 0 0)
(-5.0325433e-09 0.004076268 0 -0.00025694282 0 0)
(1.3203727e-09 0.0024411312 0 -9.2310479e-05 0 0)
(8.1912038e-09 0.00081256242 0 -1.0248835e-05 0 0)
(8.1691602e-09 -0.0008125636 0 -1.0248842e-05 0 0)
(1.2854189e-09 -0.0024411316 0 -9.2310485e-05 0 0)
(-5.0947554e-09 -0.0040762676 0 -0.00025694275 0 0)
(-4.5216498e-09 -0.0057127846 0 -0.00050429166 0 0)
(-4.123666e-09 0.0057127866 0 -0.00050429194 0 0)
(-5.04331e-09 0.0040762673 0 -0.00025694293 0 0)
(1.3090268e-09 0.0024411299 0 -9.2310426e-05 0 0)
(7.9825302e-09 0.00081256152 0 -1.0248631e-05 0 0)
(7.9880755e-09 -0.00081256272 0 -1.0248657e-05 0 0)
(1.2731707e-09 -0.0024411304 0 -9.2310437e-05 0 0)
(-5.10098e-09 -0.0040762669 0 -0.00025694288 0 0)
(-4.1594287e-09 -0.0057127857 0 -0.00050429183 0 0)
(-4.2394883e-09 0.005712788 0 -0.00050429213 0 0)
(-4.7698611e-09 0.0040762667 0 -0.00025694305 0 0)
(1.2488125e-09 0.0024411279 0 -9.2310356e-05 0 0)
(7.754166e-09 0.00081256076 0 -1.0248404e-05 0 0)
(7.7335533e-09 -0.00081256189 0 -1.024841e-05 0 0)
(1.2226491e-09 -0.0024411284 0 -9.2310368e-05 0 0)
(-4.8144635e-09 -0.0040762663 0 -0.00025694301 0 0)
(-4.2820131e-09 -0.005712787 0 -0.00050429203 0 0)
(-3.9020048e-09 0.0057127889 0 -0.00050429228 0 0)
(-4.7763536e-09 0.004076266 0 -0.00025694317 0 0)
(1.239604e-09 0.0024411267 0 -9.231031e-05 0 0)
(7.5530435e-09 0.00081255992 0 -1.0248208e-05 0 0)
(7.5578725e-09 -0.00081256109 0 -1.0248232e-05 0 0)
(1.2066323e-09 -0.0024411272 0 -9.2310321e-05 0 0)
(-4.823438e-09 -0.0040762656 0 -0.00025694313 0 0)
(-3.9289867e-09 -0.0057127879 0 -0.00050429219 0 0)
(-4.0156219e-09 0.0057127902 0 -0.00050429247 0 0)
(-4.5074351e-09 0.0040762654 0 -0.0002569433 0 0)
(1.1847281e-09 0.0024411249 0 -9.2310246e-05 0 0)
(7.3305049e-09 0.00081255918 0 -1.0247988e-05 0 0)
(7.3075486e-09 -0.00081256028 0 -1.024799e-05 0 0)
(1.1562782e-09 -0.0024411253 0 -9.2310255e-05 0 0)
(-4.547975e-09 -0.004076265 0 -0.00025694326 0 0)
(-4.0528809e-09 -0.0057127892 0 -0.00050429237 0 0)
(-3.6830605e-09 0.0057127911 0 -0.00050429261 0 0)
(-4.5113152e-09 0.0040762648 0 -0.00025694341 0 0)
(1.1763356e-09 0.0024411237 0 -9.2310206e-05 0 0)
(7.1364309e-09 0.0008125584 0 -1.02478e-05 0 0)
(7.1373451e-09 -0.00081255955 0 -1.0247819e-05 0 0)
(1.1378163e-09 -0.0024411242 0 -9.2310209e-05 0 0)
(-4.558683e-09 -0.0040762644 0 -0.00025694338 0 0)
(-3.7079541e-09 -0.0057127901 0 -0.00050429253 0 0)
(-3.7953475e-09 0.0057127923 0 -0.00050429279 0 0)
(-4.2479319e-09 0.0040762642 0 -0.00025694354 0 0)
(1.1255907e-09 0.002441122 0 -9.2310148e-05 0 0)
(6.9196711e-09 0.00081255769 0 -1.0247586e-05 0 0)
(6.8923962e-09 -0.00081255876 0 -1.0247583e-05 0 0)
(1.088536e-09 -0.0024411224 0 -9.2310146e-05 0 0)
(-4.2929266e-09 -0.0040762638 0 -0.0002569435 0 0)
(-3.8326461e-09 -0.0057127913 0 -0.00050429271 0 0)
(-3.4682082e-09 0.0057127931 0 -0.00050429293 0 0)
(-4.2506012e-09 0.0040762636 0 -0.00025694366 0 0)
(1.1171581e-09 0.0024411209 0 -9.2310112e-05 0 0)
(6.7324327e-09 0.00081255696 0 -1.0247405e-05 0 0)
(6.727818e-09 -0.00081255809 0 -1.0247418e-05 0 0)
(1.0686226e-09 -0.0024411214 0 -9.2310103e-05 0 0)
(-4.3047885e-09 -0.0040762633 0 -0.00025694361 0 0)
(-3.4950905e-09 -0.0057127921 0 -0.00050429285 0 0)
(-3.5799444e-09 0.0057127942 0 -0.00050429311 0 0)
(-3.9938831e-09 0.0040762631 0 -0.00025694378 0 0)
(1.0697002e-09 0.0024411192 0 -9.2310058e-05 0 0)
(6.5216115e-09 0.00081255629 0 -1.0247199e-05 0 0)
(6.4892621e-09 -0.00081255734 0 -1.0247189e-05 0 0)
(1.0210277e-09 -0.0024411197 0 -9.2310043e-05 0 0)
(-4.0478134e-09 -0.0040762627 0 -0.00025694374 0 0)
(-3.6203292e-09 -0.0057127932 0 -0.00050429302 0 0)
(-3.2586087e-09 0.005712795 0 -0.00050429324 0 0)
(-3.9964641e-09 0.0040762626 0 -0.0002569439 0 0)
(1.060734e-09 0.0024411182 0 -9.2310025e-05 0 0)
(6.3411818e-09 0.00081255561 0 -1.0247025e-05 0 0)
(6.3304832e-09 -0.00081255672 0 -1.024703e-05 0 0)
(1.0003851e-09 -0.0024411187 0 -9.2310002e-05 0 0)
(-4.0605805e-09 -0.0040762622 0 -0.00025694384 0 0)
(-3.2896804e-09 -0.005712794 0 -0.00050429316 0 0)
(-3.3704676e-09 0.0057127961 0 -0.00050429341 0 0)
(-3.7470357e-09 0.0040762621 0 -0.00025694402 0 0)
(1.0159969e-09 0.0024411167 0 -9.2309976e-05 0 0)
(6.1365828e-09 0.00081255497 0 -1.0246826e-05 0 0)
(6.0991766e-09 -0.00081255599 0 -1.0246809e-05 0 0)
(9.548627e-10 -0.0024411171 0 -9.2309945e-05 0 0)
(-3.8117749e-09 -0.0040762617 0 -0.00025694396 0 0)
(-3.4154186e-09 -0.0057127951 0 -0.00050429332 0 0)
(-3.0551988e-09 0.0057127968 0 -0.00050429354 0 0)
(-3.7503934e-09 0.0040762615 0 -0.00025694413 0 0)
(1.0062635e-09 0.0024411157 0 -9.2309945e-05 0 0)
(5.9630425e-09 0.00081255433 0 -1.0246658e-05 0 0)
(5.9463686e-09 -0.00081255542 0 -1.0246656e-05 0 0)
(9.3400275e-10 -0.0024411162 0 -9.2309907e-05 0 0)
(-3.8254289e-09 -0.0040762612 0 -0.00025694407 0 0)
(-3.0913828e-09 -0.0057127958 0 -0.00050429345 0 0)
(-3.1677522e-09 0.0057127978 0 -0.0005042937 0 0)
(-3.5086006e-09 0.0040762611 0 -0.00025694425 0 0)
(9.6388094e-10 0.0024411142 0 -9.2309898e-05 0 0)
(5.7650052e-09 0.00081255373 0 -1.0246466e-05 0 0)
(5.7230103e-09 -0.00081255473 0 -1.0246443e-05 0 0)
(8.9077621e-10 -0.0024411146 0 -9.2309854e-05 0 0)
(-3.5843981e-09 -0.0040762607 0 -0.00025694418 0 0)
(-3.2177222e-09 -0.0057127968 0 -0.00050429361 0 0)
(-2.8587138e-09 0.0057127985 0 -0.00050429382 0 0)
(-3.5134037e-09 0.0040762606 0 -0.00025694436 0 0)
(9.5332168e-10 0.0024411134 0 -9.2309869e-05 0 0)
(5.5984822e-09 0.00081255314 0 -1.0246305e-05 0 0)
(5.5763234e-09 -0.0008125542 0 -1.0246297e-05 0 0)
(8.7005653e-10 -0.0024411138 0 -9.2309818e-05 0 0)
(-3.5990668e-09 -0.0040762602 0 -0.00025694428 0 0)
(-2.9001099e-09 -0.0057127975 0 -0.00050429374 0 0)
(-2.9724429e-09 0.0057127994 0 -0.00050429397 0 0)
(-3.2794373e-09 0.0040762601 0 -0.00025694448 0 0)
(9.13065e-10 0.002441112 0 -9.2309826e-05 0 0)
(5.4073523e-09 0.00081255257 0 -1.024612e-05 0 0)
(5.3614698e-09 -0.00081255355 0 -1.0246092e-05 0 0)
(8.2923541e-10 -0.0024411124 0 -9.2309768e-05 0 0)
(-3.3655535e-09 -0.0040762598 0 -0.0002569444 0 0)
(-3.0272453e-09 -0.0057127985 0 -0.00050429388 0 0)
(-2.6697159e-09 0.0057128 0 -0.00050429409 0 0)
(-3.2861921e-09 0.0040762597 0 -0.00025694458 0 0)
(9.0172924e-10 0.0024411112 0 -9.2309798e-05 0 0)
(5.2479797e-09 0.00081255202 0 -1.0245966e-05 0 0)
(5.2210187e-09 -0.00081255305 0 -1.0245952e-05 0 0)
(8.0890381e-10 -0.0024411116 0 -9.2309736e-05 0 0)
(-3.3814452e-09 -0.0040762593 0 -0.0002569445 0 0)