/*--------------------------------*- C++ -*----------------------------------*\
| =========                 |                                                 |
| \\      /  F ield         | OpenFOAM: The Open Source CFD Toolbox           |
|  \\    /   O peration     | Version:  5.x                                   |
|   \\  /    A nd           | Web:      www.OpenFOAM.org                      |
|    \\/     M anipulation  |                                                 |
\*---------------------------------------------------------------------------*/
FoamFile
{
    version     2.0;
    format      ascii;
    class       volSymmTensorField;
    location    "5";
    object      sigma;
}
// * * * * * * * * * * * * * * * * * * * * * * * * * * * * * * * * * * * * * //

dimensions      [0 2 -2 0 0 0 0];

internalField   nonuniform List<symmTensor> 
1920
(
(0.0023210741 0.013345807 0 -0.0083774994 0 0)
(-0.00042259305 0.0050217607 0 0.0015563868 0 0)
(-0.001572837 0.0032647415 0 0.0011884214 0 0)
(-0.0011056791 0.0010456183 0 0.0011168685 0 0)
(-0.0011056475 -0.0010456292 0 0.001116836 0 0)
(-0.0015728512 -0.0032646884 0 0.001188437 0 0)
(-0.00042259612 -0.0050217483 0 0.0015563902 0 0)
(0.0023210729 -0.013345807 0 -0.0083774961 0 0)
(0.0046213216 0.00909958 0 -0.0043684005 0 0)
(0.00045619832 0.0017631239 0 0.00057788006 0 0)
(-0.0028728983 0.00056975789 0 0.0024176731 0 0)
(-0.0028211042 0.00033504012 0 0.0025737922 0 0)
(-0.0028210932 -0.00033504361 0 0.0025737789 0 0)
(-0.0028729204 -0.00056966864 0 0.0024176964 0 0)
(0.00045620012 -0.0017631233 0 0.00057787496 0 0)
(0.0046213216 -0.009099583 0 -0.0043684011 0 0)
(0.0040469543 0.0077950538 0 -0.0052932369 0 0)
(0.0010449217 0.00095975672 0 -0.00057659829 0 0)
(-0.0023604348 0.00024028393 0 0.0020972413 0 0)
(-0.0029466471 7.4110326e-05 0 0.0028029669 0 0)
(-0.0029466747 -7.410671e-05 0 0.0028029971 0 0)
(-0.0023603946 -0.00024042238 0 0.0020971977 0 0)
(0.0010449272 -0.00095976521 0 -0.00057660188 0 0)
(0.0040469559 -0.0077950538 0 -0.0052932403 0 0)
(0.0031399845 0.0072780839 0 -0.0044247564 0 0)
(0.0011690453 0.0014490933 0 -0.00099314786 0 0)
(-0.0017054092 0.00027522286 0 0.0015956465 0 0)
(-0.0026693005 1.6688847e-05 0 0.0026288894 0 0)
(-0.0026692849 -1.6695492e-05 0 0.0026288741 0 0)
(-0.0017054414 -0.00027513546 0 0.001595679 0 0)
(0.001169051 -0.0014490939 0 -0.00099315371 0 0)
(0.0031399879 -0.007278083 0 -0.0044247595 0 0)
(0.0023446361 0.0069566114 0 -0.0032938652 0 0)
(0.0010633839 0.0020363433 0 -0.0010278475 0 0)
(-0.001176393 0.0006699562 0 0.0011022993 0 0)
(-0.002268265 9.6174923e-05 0 0.0022411219 0 0)
(-0.0022683462 -9.6178787e-05 0 0.0022412054 0 0)
(-0.0011767562 -0.0006697024 0 0.0011026601 0 0)
(0.0010633878 -0.0020363443 0 -0.0010278518 0 0)
(0.0023446498 -0.0069566117 0 -0.0032938798 0 0)
(0.0017726856 0.0067367359 0 -0.0025218216 0 0)
(0.00088908871 0.0026251981 0 -0.00094129842 0 0)
(-0.00095994766 0.00089981671 0 0.00089717033 0 0)
(-0.0016427244 0.0002398519 0 0.0016245153 0 0)
(-0.0016426801 -0.00023987421 0 0.0016244679 0 0)
(-0.00095947619 -0.00090023812 0 0.00089670252 0 0)
(0.00088911674 -0.0026251867 0 -0.0009413263 0 0)
(0.0017726857 -0.0067367286 0 -0.0025218203 0 0)
(0.0012142073 0.0065247956 0 -0.0018625148 0 0)
(0.00067742883 0.003191798 0 -0.00079808409 0 0)
(-0.00056986827 0.0013723382 0 0.00051290117 0 0)
(-0.0012634223 0.00036348911 0 0.0012544596 0 0)
(-0.0012633864 -0.00036350614 0 0.0012544246 0 0)
(-0.00056983873 -0.0013723473 0 0.00051287071 0 0)
(0.00067744754 -0.0031917869 0 -0.00079810176 0 0)
(0.0012142106 -0.0065247838 0 -0.0018625177 0 0)
(0.00085356258 0.0063899955 0 -0.0014508378 0 0)
(0.00053197951 0.0034933256 0 -0.00069461571 0 0)
(-0.00036338754 0.0017068565 0 0.00030480738 0 0)
(-0.00094117397 0.0004771381 0 0.00093795748 0 0)
(-0.00094123152 -0.00047712348 0 0.00093801375 0 0)
(-0.00036339931 -0.0017068171 0 0.00030481939 0 0)
(0.00053198034 -0.0034933461 0 -0.00069461857 0 0)
(0.00085356263 -0.0063899834 0 -0.0014508365 0 0)
(0.00058886086 0.0062972125 0 -0.0011540585 0 0)
(0.00038247209 0.0037798473 0 -0.00057795111 0 0)
(-0.00023988527 0.0019482306 0 0.0001751466 0 0)
(-0.0006893148 0.00057209499 0 0.00068737292 0 0)
(-0.00068920769 -0.00057214077 0 0.00068726827 0 0)
(-0.00023984593 -0.0019482745 0 0.00017510688 0 0)
(0.00038250125 -0.0037798138 0 -0.0005779796 0 0)
(0.00058887459 -0.0062971987 0 -0.0011540715 0 0)
(0.0003968153 0.0062323892 0 -0.00094232364 0 0)
(0.00027666441 0.0039619649 0 -0.00049491168 0 0)
(-0.00015346909 0.0021418404 0 8.1546381e-05 0 0)
(-0.00047433364 0.00065799384 0 0.0004715862 0 0)
(-0.00047446836 -0.00065794537 0 0.00047171943 0 0)
(-0.00015348096 -0.0021417942 0 8.1559529e-05 0 0)
(0.0002766625 -0.0039619758 0 -0.00049491049 0 0)
(0.00039681401 -0.0062323707 0 -0.00094232049 0 0)
(0.00026074178 0.006188351 0 -0.00079455244 0 0)
(0.00019679097 0.0040906616 0 -0.00043091785 0 0)
(-9.5831658e-05 0.0022880091 0 1.7580737e-05 0 0)
(-0.00032280936 0.00072171831 0 0.00031849775 0 0)
(-0.00032273357 -0.00072175944 0 0.0003184226 0 0)
(-9.5804478e-05 -0.0022880544 0 1.7552035e-05 0 0)
(0.00019681109 -0.0040906305 0 -0.00043093661 0 0)
(0.00026075455 -0.0061883332 0 -0.00079456355 0 0)
(0.00016810605 0.0061593691 0 -0.00069508726 0 0)
(0.00013559432 0.004183948 0 -0.000380589 0 0)
(-5.856217e-05 0.0023940216 0 -2.4716703e-05 0 0)
(-0.00021585919 0.00076858258 0 0.00020993721 0 0)
(-0.00021581554 -0.00076860476 0 0.00020989303 0 0)
(-5.8573403e-05 -0.0023939842 0 -2.4704373e-05 0 0)
(0.00013558905 -0.0041839513 0 -0.00038058416 0 0)
(0.00016810349 -0.0061593472 0 -0.00069508257 0 0)
(0.00010669794 0.0061407104 0 -0.00062973638 0 0)
(9.1218615e-05 0.0042480547 0 -0.00034338736 0 0)
(-3.506633e-05 0.0024685445 0 -5.1994492e-05 0 0)
(-0.00014183737 0.00080223778 0 0.00013456139 0 0)
(-0.0001419784 -0.00080219583 0 0.00013470225 0 0)
(-3.5055511e-05 -0.0024685783 0 -5.2006704e-05 0 0)
(9.1229195e-05 -0.0042480288 0 -0.00034339652 0 0)
(0.00010670524 -0.0061406899 0 -0.00062974131 0 0)
(6.65335e-05 0.0061288357 0 -0.00058731553 0 0)
(6.017974e-05 0.0042906952 0 -0.00031699521 0 0)
(-2.0465736e-05 0.0025199014 0 -6.9306451e-05 0 0)
(-9.2213883e-05 0.00082554526 0 8.3889622e-05 0 0)
(-9.1977551e-05 -0.00082565655 0 8.3651819e-05 0 0)
(-2.0476182e-05 -0.0025198801 0 -6.929532e-05 0 0)
(6.0171054e-05 -0.0042906944 0 -0.00031698637 0 0)
(6.6531359e-05 -0.0061288137 0 -0.00058731108 0 0)
(4.065502e-05 0.006121402 0 -0.0005601786 0 0)
(3.8957182e-05 0.0043185559 0 -0.00029872122 0 0)
(-1.1592449e-05 0.0025545681 0 -8.0057859e-05 0 0)
(-5.9025047e-05 0.00084154093 0 4.9943586e-05 0 0)
(-5.9414302e-05 -0.00084138658 0 5.0334571e-05 0 0)
(-1.1592957e-05 -0.0025545906 0 -8.0058425e-05 0 0)
(3.8958828e-05 -0.0043185384 0 -0.00029872166 0 0)
(4.0657409e-05 -0.0061213815 0 -0.00056017838 0 0)
(2.4279079e-05 0.0061168449 0 -0.00054312331 0 0)
(2.474173e-05 0.0043364176 0 -0.00028634808 0 0)
(-6.2830902e-06 0.0025776351 0 -8.6627783e-05 0 0)
(-3.6579815e-05 0.00085259565 0 2.697008e-05 0 0)
(-3.6005632e-05 -0.00085286731 0 2.6392807e-05 0 0)
(-6.2925754e-06 -0.0025776282 0 -8.661808e-05 0 0)
(2.4732496e-05 -0.0043364143 0 -0.00028633834 0 0)
(2.4276221e-05 -0.0061168246 0 -0.00054311813 0 0)
(1.4088287e-05 0.0061141175 0 -0.00053258615 0 0)
(1.5378629e-05 0.0043477036 0 -0.0002781141 0 0)
(-3.2100159e-06 0.0025926508 0 -9.0524034e-05 0 0)
(-2.2332662e-05 0.0008598014 0 1.2369953e-05 0 0)
(-2.2793437e-05 -0.00085960964 0 1.2832784e-05 0 0)
(-3.2159388e-06 -0.0025926649 0 -9.0518923e-05 0 0)
(1.5374575e-05 -0.0043476935 0 -0.00027810912 0 0)
(1.4087142e-05 -0.0061140988 0 -0.00053258252 0 0)
(7.8881651e-06 0.0061125373 0 -0.00052622474 0 0)
(9.3423957e-06 0.0043546736 0 -0.00027275477 0 0)
(-1.4750425e-06 0.0026023014 0 -9.2784715e-05 0 0)
(-1.3563978e-05 0.00086435384 0 3.3726735e-06 0 0)
(-1.3218022e-05 -0.00086453333 0 3.0243273e-06 0 0)
(-1.4830222e-06 -0.0026023042 0 -9.2776865e-05 0 0)
(9.3342651e-06 -0.0043546695 0 -0.00027274607 0 0)
(7.8850085e-06 -0.0061125197 0 -0.00052621942 0 0)
(4.1932278e-06 0.006111659 0 -0.00052246727 0 0)
(5.5084696e-06 0.0043589119 0 -0.00026932 0 0)
(-5.4669843e-07 0.0026083489 0 -9.4037914e-05 0 0)
(-7.6639045e-06 0.00086746496 0 -2.6753456e-06 0 0)
(-7.9092425e-06 -0.00086736571 0 -2.4288866e-06 0 0)
(-5.5386721e-07 -0.0026083574 0 -9.4031364e-05 0 0)
(5.5020421e-06 -0.0043589067 0 -0.00026931292 0 0)
(4.1901968e-06 -0.0061116428 0 -0.00052246207 0 0)
(2.0885267e-06 0.0061112058 0 -0.00052035108 0 0)
(3.1373402e-06 0.0043614098 0 -0.00026717443 0 0)
(-7.8478388e-08 0.0026120839 0 -9.4703964e-05 0 0)
(-4.2734052e-06 0.00086931153 0 -6.1560636e-06 0 0)
(-4.143224e-06 -0.0008693915 0 -6.287305e-06 0 0)
(-8.4793067e-08 -0.0026120914 0 -9.4698014e-05 0 0)
(3.1310238e-06 -0.0043614058 0 -0.00026716761 0 0)
(2.0858754e-06 -0.0061111909 0 -0.00052034652 0 0)
(8.8416215e-07 0.0061109871 0 -0.0005191567 0 0)
(1.6947522e-06 0.004362849 0 -0.00026585849 0 0)
(1.3089256e-07 0.0026143193 0 -9.5027285e-05 0 0)
(-2.0787734e-06 0.00087053067 0 -8.4065105e-06 0 0)
(-2.2735679e-06 -0.00087044744 0 -8.2104355e-06 0 0)
(1.2455537e-07 -0.0026143247 0 -9.5021462e-05 0 0)
(1.6880955e-06 -0.0043628464 0 -0.00026585138 0 0)
(8.8073164e-07 -0.0061109733 0 -0.00051915146 0 0)
(2.556652e-07 0.0061109059 0 -0.00051854737 0 0)
(8.5099448e-07 0.0043636373 0 -0.00026507889 0 0)
(2.0222035e-07 0.0026156248 0 -9.5164042e-05 0 0)
(-1.0275941e-06 0.00087114831 0 -9.4878189e-06 0 0)
(-8.4940541e-07 -0.00087125872 0 -9.6682054e-06 0 0)
(1.9712081e-07 -0.002615633 0 -9.5159375e-05 0 0)
(8.4629716e-07 -0.0043636336 0 -0.00026507379 0 0)
(2.531346e-07 -0.0061108932 0 -0.00051854322 0 0)
(-4.488087e-08 0.0061108989 0 -0.0005182661 0 0)
(3.6934977e-07 0.0043640456 0 -0.00026463099 0 0)
(2.0703678e-07 0.0026163547 0 -9.5202064e-05 0 0)
(-2.5826758e-07 0.00087160851 0 -1.0276058e-05 0 0)
(-2.5782839e-07 -0.00087162315 0 -1.0276642e-05 0 0)
(2.0201642e-07 -0.0026163588 0 -9.5197506e-05 0 0)
(3.6344547e-07 -0.0043640438 0 -0.00026462476 0 0)
(-4.7896758e-08 -0.0061108872 0 -0.00051826161 0 0)
(-1.7691814e-07 0.0061109261 0 -0.0005181523 0 0)
(1.1134095e-07 0.0043642374 0 -0.00026438506 0 0)
(1.8111881e-07 0.0026167401 0 -9.5193552e-05 0 0)
(1.8826499e-08 0.00087179512 0 -1.0561534e-05 0 0)
(-8.5231138e-08 -0.00087174729 0 -1.0456908e-05 0 0)
(1.7673401e-07 -0.0026167472 0 -9.5189562e-05 0 0)
(1.0763106e-07 -0.0043642344 0 -0.00026438104 0 0)
(-1.793772e-07 -0.0061109153 0 -0.00051814848 0 0)
(-2.0817388e-07 0.0061109609 0 -0.00051813505 0 0)
(-1.6902344e-08 0.0043643139 0 -0.00026426181 0 0)
(1.4774451e-07 0.0026169281 0 -9.5165958e-05 0 0)
(1.1852335e-07 0.0008718726 0 -1.0665496e-05 0 0)
(1.320281e-07 -0.00087189252 0 -1.0679331e-05 0 0)
(1.4383329e-07 -0.0026169321 0 -9.5162435e-05 0 0)
(-2.1624955e-08 -0.0043643121 0 -0.00026425681 0 0)
(-2.1062952e-07 -0.0061109509 0 -0.0005181314 0 0)
(-1.9534897e-07 0.0061109986 0 -0.00051816006 0 0)
(-8.1137731e-08 0.0043643342 0 -0.00026419516 0 0)
(1.153483e-07 0.0026170032 0 -9.5135656e-05 0 0)
(1.7237596e-07 0.00087192347 0 -1.0720927e-05 0 0)
(1.6057655e-07 -0.00087192448 0 -1.0709321e-05 0 0)
(1.1129935e-07 -0.0026170086 0 -9.513193e-05 0 0)
(-8.4569503e-08 -0.0043643321 0 -0.00026419149 0 0)
(-1.9785198e-07 -0.0061109889 0 -0.00051815638 0 0)
(-1.6525172e-07 0.0061110275 0 -0.00051819807 0 0)
(-9.0274228e-08 0.00436432 0 -0.00026418479 0 0)
(8.477254e-08 0.002617025 0 -9.5103189e-05 0 0)
(1.7046278e-07 0.00087193292 0 -1.0719568e-05 0 0)
(1.7142075e-07 -0.00087194271 0 -1.0720726e-05 0 0)
(8.1147349e-08 -0.0026170291 0 -9.5099909e-05 0 0)
(-9.5019185e-08 -0.0043643176 0 -0.00026417969 0 0)
(-1.6704341e-07 -0.0061110191 0 -0.00051819534 0 0)
(-1.30626e-07 0.0061110535 0 -0.00051823906 0 0)
(-8.7575301e-08 0.0043642912 0 -0.00026418441 0 0)
(6.1248873e-08 0.0026170113 0 -9.5078252e-05 0 0)
(1.5184893e-07 0.00087193635 0 -1.0700583e-05 0 0)
(1.5240628e-07 -0.00087194362 0 -1.0701397e-05 0 0)
(5.753682e-08 -0.0026170157 0 -9.5074764e-05 0 0)
(-9.1041241e-08 -0.0043642896 0 -0.00026418073 0 0)
(-1.3238182e-07 -0.0061110458 0 -0.00051823638 0 0)
(-1.0002894e-07 0.0061110719 0 -0.00051827371 0 0)
(-7.3216918e-08 0.0043642667 0 -0.00026419638 0 0)
(4.3496982e-08 0.0026169872 0 -9.5057927e-05 0 0)
(1.3139018e-07 0.00087192783 0 -1.067982e-05 0 0)
(1.2888649e-07 -0.00087193604 0 -1.0677422e-05 0 0)
(3.9993456e-08 -0.0026169906 0 -9.5054682e-05 0 0)
(-7.7017532e-08 -0.0043642657 0 -0.00026419232 0 0)
(-1.0190416e-07 -0.0061110644 0 -0.000518271 0 0)
(-7.6687103e-08 0.0061110863 0 -0.0005183004 0 0)
(-6.0617622e-08 0.0043642463 0 -0.00026420603 0 0)
(2.8327203e-08 0.0026169589 0 -9.5041214e-05 0 0)
(1.0021874e-07 0.00087191876 0 -1.0647882e-05 0 0)
(9.9711833e-08 -0.00087192541 0 -1.0647578e-05 0 0)
(2.5615979e-08 -0.0026169633 0 -9.5038714e-05 0 0)
(-6.3806679e-08 -0.0043642448 0 -0.00026420267 0 0)
(-7.8284982e-08 -0.0061110797 0 -0.00051829803 0 0)
(-5.453574e-08 0.0061110975 0 -0.00051832438 0 0)
(-4.6603038e-08 0.0043642266 0 -0.00026421884 0 0)
(2.081509e-08 0.0026169349 0 -9.5031802e-05 0 0)
(8.4497323e-08 0.00087191143 0 -1.063186e-05 0 0)
(8.0266696e-08 -0.00087191648 0 -1.0627702e-05 0 0)
(1.7644973e-08 -0.0026169376 0 -9.5028857e-05 0 0)
(-4.9976424e-08 -0.0043642254 0 -0.00026421523 0 0)
(-5.6168898e-08 -0.0061110912 0 -0.00051832204 0 0)
(-4.1075668e-08 0.0061111057 0 -0.00051833958 0 0)
(-3.6504799e-08 0.0043642128 0 -0.00026422688 0 0)
(1.419784e-08 0.0026169163 0 -9.5024208e-05 0 0)
(5.9587934e-08 0.0008719005 0 -1.0606295e-05 0 0)
(5.7985425e-08 -0.00087190594 0 -1.0604855e-05 0 0)
(1.1208466e-08 -0.0026169193 0 -9.5021375e-05 0 0)
(-3.9431056e-08 -0.0043642118 0 -0.00026422379 0 0)
(-4.2519545e-08 -0.0061111003 0 -0.00051833749 0 0)
(-2.845067e-08 0.0061111116 0 -0.00051835289 0 0)
(-2.7004347e-08 0.0043642004 0 -0.00026423604 0 0)
(1.1675286e-08 0.0026169011 0 -9.502021e-05 0 0)
(4.598716e-08 0.00087189457 0 -1.0592523e-05 0 0)
(4.4824094e-08 -0.00087189926 0 -1.0591447e-05 0 0)
(8.952853e-09 -0.0026169035 0 -9.5017665e-05 0 0)
(-2.9954644e-08 -0.0043641995 0 -0.00026423289 0 0)
(-2.9905803e-08 -0.0061111064 0 -0.00051835085 0 0)
(-2.1255755e-08 0.0061111162 0 -0.00051836103 0 0)
(-2.0575953e-08 0.0043641924 0 -0.00026424116 0 0)
(7.5294939e-09 0.0026168886 0 -9.5015746e-05 0 0)
(3.2328193e-08 0.00087188722 0 -1.0578433e-05 0 0)
(3.1011477e-08 -0.00087189138 0 -1.0577239e-05 0 0)
(4.9118315e-09 -0.002616891 0 -9.501325e-05 0 0)
(-2.3157866e-08 -0.0043641917 0 -0.00026423843 0 0)
(-2.2546301e-08 -0.0061111118 0 -0.00051835921 0 0)
(-1.5061028e-08 0.0061111194 0 -0.00051836741 0 0)
(-1.5475193e-08 0.0043641854 0 -0.00026424636 0 0)
(6.237854e-09 0.0026168788 0 -9.5013487e-05 0 0)
(2.5015353e-08 0.00087188417 0 -1.0571094e-05 0 0)
(2.4552112e-08 -0.00087188815 0 -1.057071e-05 0 0)
(3.9791624e-09 -0.0026168809 0 -9.5011354e-05 0 0)
(-1.7980812e-08 -0.0043641848 0 -0.00026424368 0 0)
(-1.633903e-08 -0.0061111152 0 -0.00051836564 0 0)
(-1.1353315e-08 0.006111122 0 -0.00051837169 0 0)
(-1.1510999e-08 0.0043641809 0 -0.00026424939 0 0)
(4.2389798e-09 0.0026168714 0 -9.5011481e-05 0 0)
(1.8711516e-08 0.00087188014 0 -1.0564515e-05 0 0)
(1.7522869e-08 -0.0008718831 0 -1.0563419e-05 0 0)
(2.1026956e-09 -0.0026168735 0 -9.5009441e-05 0 0)
(-1.3733403e-08 -0.0043641804 0 -0.00026424704 0 0)
(-1.2509096e-08 -0.0061111184 0 -0.00051837009 0 0)
(-8.603035e-09 0.0061111239 0 -0.00051837442 0 0)
(-9.3577488e-09 0.0043641772 0 -0.00026425188 0 0)
(3.6882003e-09 0.0026168656 0 -9.5010251e-05 0 0)
(1.5092547e-08 0.00087187851 0 -1.0560949e-05 0 0)
(1.4761069e-08 -0.00087188217 0 -1.0560686e-05 0 0)
(1.8487171e-09 -0.0026168675 0 -9.500851e-05 0 0)
(-1.1424039e-08 -0.0043641767 0 -0.00026424967 0 0)
(-9.7100169e-09 -0.0061111206 0 -0.00051837291 0 0)
(-6.8956847e-09 0.0061111256 0 -0.00051837655 0 0)
(-6.9896426e-09 0.0043641745 0 -0.00026425348 0 0)
(2.6867321e-09 0.002616861 0 -9.5009397e-05 0 0)
(1.2382905e-08 0.00087187643 0 -1.0558042e-05 0 0)
(1.1746794e-08 -0.00087187932 0 -1.0557489e-05 0 0)
(1.0015872e-09 -0.0026168629 0 -9.5007791e-05 0 0)
(-8.819224e-09 -0.0043641743 0 -0.00026425153 0 0)
(-7.8846833e-09 -0.0061111227 0 -0.00051837519 0 0)
(-5.6400829e-09 0.006111127 0 -0.0005183777 0 0)
(-6.386851e-09 0.0043641726 0 -0.00026425453 0 0)
(2.5911367e-09 0.0026168573 0 -9.5008748e-05 0 0)
(1.0620394e-08 0.00087187535 0 -1.0556373e-05 0 0)
(1.0356715e-08 -0.00087187859 0 -1.0556164e-05 0 0)
(1.1433953e-09 -0.002616859 0 -9.5007386e-05 0 0)
(-8.0321186e-09 -0.0043641723 0 -0.00026425277 0 0)
(-6.5614767e-09 -0.0061111244 0 -0.00051837644 0 0)
(-5.0015839e-09 0.0061111281 0 -0.00051837868 0 0)
(-4.9598796e-09 0.0043641711 0 -0.00026425526 0 0)
(1.9666219e-09 0.0026168548 0 -9.5008371e-05 0 0)
(9.4116639e-09 0.00087187403 0 -1.0555e-05 0 0)
(8.9810739e-09 -0.00087187656 0 -1.0554643e-05 0 0)
(6.9046093e-10 -0.0026168564 0 -9.5007162e-05 0 0)
(-6.3988165e-09 -0.0043641709 0 -0.00026425372 0 0)
(-5.8102572e-09 -0.0061111259 0 -0.00051837757 0 0)
(-4.3208103e-09 0.0061111293 0 -0.00051837923 0 0)
(-5.049585e-09 0.0043641699 0 -0.00026425568 0 0)
(2.0984157e-09 0.0026168521 0 -9.5008008e-05 0 0)
(8.4822428e-09 0.00087187326 0 -1.0554183e-05 0 0)
(8.2404277e-09 -0.00087187594 0 -1.0553984e-05 0 0)
(1.0115456e-09 -0.0026168534 0 -9.5006996e-05 0 0)
(-6.3106481e-09 -0.0043641698 0 -0.00026425433 0 0)
(-5.055019e-09 -0.0061111272 0 -0.00051837822 0 0)
(-4.1676974e-09 0.0061111302 0 -0.00051837969 0 0)
(-4.0811884e-09 0.0043641689 0 -0.00026425599 0 0)
(1.5831519e-09 0.0026168506 0 -9.5007797e-05 0 0)
(7.9412344e-09 0.00087187227 0 -1.0553492e-05 0 0)
(7.6246923e-09 -0.0008718744 0 -1.0553242e-05 0 0)
(6.6135571e-10 -0.002616852 0 -9.5006933e-05 0 0)
(-5.1677094e-09 -0.0043641688 0 -0.00026425482 0 0)
(-4.8048413e-09 -0.0061111284 0 -0.0005183788 0 0)
(-3.7160624e-09 0.0061111313 0 -0.00051838 0 0)
(-4.4521473e-09 0.0043641681 0 -0.00026425616 0 0)
(1.8111323e-09 0.0026168484 0 -9.5007567e-05 0 0)
(7.3692352e-09 0.00087187168 0 -1.0553043e-05 0 0)
(7.1718011e-09 -0.00087187387 0 -1.0552878e-05 0 0)
(1.0340548e-09 -0.0026168495 0 -9.5006858e-05 0 0)
(-5.3824159e-09 -0.004364168 0 -0.00026425516 0 0)
(-4.2802697e-09 -0.0061111297 0 -0.0005183792 0 0)
(-3.7637471e-09 0.0061111321 0 -0.00051838024 0 0)
(-3.6763619e-09 0.0043641674 0 -0.00026425629 0 0)
(1.3352455e-09 0.0026168474 0 -9.5007421e-05 0 0)
(7.1228025e-09 0.00087187083 0 -1.0552652e-05 0 0)
(6.8968318e-09 -0.00087187261 0 -1.0552486e-05 0 0)
(7.0038899e-10 -0.0026168485 0 -9.5006837e-05 0 0)
(-4.4656302e-09 -0.0043641673 0 -0.00026425544 0 0)
(-4.2484177e-09 -0.0061111307 0 -0.00051837955 0 0)
(-3.4009527e-09 0.0061111332 0 -0.00051838045 0 0)
(-4.1550526e-09 0.0043641667 0 -0.00026425638 0 0)
(1.606635e-09 0.0026168455 0 -9.5007256e-05 0 0)
(6.699796e-09 0.00087187033 0 -1.0552357e-05 0 0)
(6.5590951e-09 -0.00087187215 0 -1.0552241e-05 0 0)
(1.075371e-09 -0.0026168464 0 -9.5006788e-05 0 0)
(-4.8176212e-09 -0.0043641666 0 -0.00026425566 0 0)
(-3.8207359e-09 -0.0061111318 0 -0.00051837984 0 0)
(-3.5262082e-09 0.0061111339 0 -0.00051838061 0 0)
(-3.4490025e-09 0.0043641661 0 -0.00026425645 0 0)
(1.1532627e-09 0.0026168446 0 -9.5007144e-05 0 0)
(6.5811676e-09 0.00087186956 0 -1.0552097e-05 0 0)
(6.4280811e-09 -0.00087187106 0 -1.0552e-05 0 0)
(7.3529221e-10 -0.0026168456 0 -9.5006772e-05 0 0)
(-4.002343e-09 -0.004364166 0 -0.00026425585 0 0)
(-3.8833684e-09 -0.0061111327 0 -0.00051838008 0 0)
(-3.1944511e-09 0.006111135 0 -0.00051838078 0 0)
(-3.9643063e-09 0.0043641656 0 -0.00026425651 0 0)
(1.4490507e-09 0.0026168429 0 -9.5007016e-05 0 0)
(6.2202213e-09 0.0008718691 0 -1.0551867e-05 0 0)
(6.1312306e-09 -0.00087187064 0 -1.0551797e-05 0 0)
(1.0993419e-09 -0.0026168437 0 -9.5006725e-05 0 0)
(-4.4228564e-09 -0.0043641654 0 -0.00026425601 0 0)
(-3.4978799e-09 -0.0061111338 0 -0.00051838031 0 0)
(-3.3477791e-09 0.0061111357 0 -0.00051838091 0 0)
(-3.2772714e-09 0.004364165 0 -0.00026425657 0 0)
(1.0126222e-09 0.0026168421 0 -9.5006929e-05 0 0)
(6.1579754e-09 0.00087186838 0 -1.0551665e-05 0 0)
(6.0586107e-09 -0.00087186968 0 -1.0551618e-05 0 0)
(7.4802687e-10 -0.0026168429 0 -9.5006705e-05 0 0)
(-3.6547556e-09 -0.0043641649 0 -0.00026425615 0 0)
(-3.6042584e-09 -0.0061111346 0 -0.00051838051 0 0)
(-3.0246582e-09 0.0061111367 0 -0.00051838106 0 0)
(-3.8009714e-09 0.0043641645 0 -0.00026425663 0 0)
(1.3251552e-09 0.0026168405 0 -9.5006824e-05 0 0)
(5.8245224e-09 0.00087186794 0 -1.0551465e-05 0 0)
(5.7740607e-09 -0.00087186927 0 -1.0551429e-05 0 0)
(1.1001801e-09 -0.0026168412 0 -9.5006655e-05 0 0)
(-4.1126916e-09 -0.0043641643 0 -0.00026425629 0 0)
(-3.2390424e-09 -0.0061111356 0 -0.00051838071 0 0)
(-3.1876434e-09 0.0061111373 0 -0.00051838118 0 0)
(-3.1147446e-09 0.004364164 0 -0.00026425669 0 0)
(9.0251719e-10 0.0026168398 0 -9.5006756e-05 0 0)
(5.7892563e-09 0.00087186725 0 -1.0551291e-05 0 0)
(5.7254886e-09 -0.00087186843 0 -1.0551278e-05 0 0)
(7.388648e-10 -0.0026168405 0 -9.500663e-05 0 0)
(-3.3688851e-09 -0.0043641638 0 -0.00026425641 0 0)
(-3.368896e-09 -0.0061111364 0 -0.00051838087 0 0)
(-2.8653746e-09 0.0061111383 0 -0.00051838132 0 0)
(-3.637401e-09 0.0043641635 0 -0.00026425676 0 0)
(1.2275316e-09 0.0026168383 0 -9.500667e-05 0 0)
(5.4700781e-09 0.00087186683 0 -1.0551107e-05 0 0)
(5.4439243e-09 -0.00087186801 0 -1.0551092e-05 0 0)
(1.0814887e-09 -0.0026168388 0 -9.5006578e-05 0 0)
(-3.8497475e-09 -0.0043641633 0 -0.00026425652 0 0)
(-3.0151325e-09 -0.0061111373 0 -0.00051838106 0 0)
(-3.0319649e-09 0.0061111389 0 -0.00051838143 0 0)
(-2.947241e-09 0.004364163 0 -0.00026425682 0 0)
(8.1588695e-10 0.0026168376 0 -9.5006617e-05 0 0)
(5.4498879e-09 0.00087186618 0 -1.0550951e-05 0 0)
(5.4067664e-09 -0.00087186728 0 -1.0550956e-05 0 0)
(7.1264082e-10 -0.0026168382 0 -9.5006549e-05 0 0)
(-3.1205357e-09 -0.0043641628 0 -0.00026425663 0 0)
(-3.1600477e-09 -0.006111138 0 -0.0005183812 0 0)
(-2.7084833e-09 0.0061111398 0 -0.00051838157 0 0)
(-3.4671918e-09 0.0043641626 0 -0.0002642569 0 0)
(1.1501951e-09 0.0026168362 0 -9.5006545e-05 0 0)
(5.1399722e-09 0.00087186576 0 -1.0550778e-05 0 0)
(5.1263304e-09 -0.00087186684 0 -1.0550772e-05 0 0)
(1.0485892e-09 -0.0026168367 0 -9.5006495e-05 0 0)
(-3.6173755e-09 -0.0043641624 0 -0.00026425673 0 0)
(-2.8138712e-09 -0.0061111389 0 -0.00051838137 0 0)
(-2.8771568e-09 0.0061111404 0 -0.00051838168 0 0)
(-2.773331e-09 0.0043641621 0 -0.00026425697 0 0)
(7.4676289e-10 0.0026168356 0 -9.5006505e-05 0 0)
(5.1299014e-09 0.00087186516 0 -1.0550633e-05 0 0)
(5.0963882e-09 -0.0008718662 0 -1.0550646e-05 0 0)
(6.7489658e-10 -0.002616836 0 -9.5006465e-05 0 0)
(-2.8979929e-09 -0.0043641619 0 -0.00026425683 0 0)
(-2.9698473e-09 -0.0061111396 0 -0.0005183815 0 0)
(-2.5525169e-09 0.0061111413 0 -0.00051838182 0 0)
(-3.2915439e-09 0.0043641617 0 -0.00026425705 0 0)
(1.0876447e-09 0.0026168342 0 -9.5006443e-05 0 0)
(4.8272574e-09 0.00087186476 0 -1.0550468e-05 0 0)
(4.8177451e-09 -0.00087186575 0 -1.0550464e-05 0 0)
(1.0065926e-09 -0.0026168346 0 -9.5006412e-05 0 0)
(-3.4061745e-09 -0.0043641615 0 -0.00026425693 0 0)
(-2.6292299e-09 -0.0061111404 0 -0.00051838165 0 0)
(-2.7232073e-09 0.0061111418 0 -0.00051838192 0 0)
(-2.5957014e-09 0.0043641613 0 -0.00026425712 0 0)
(6.899841e-10 0.0026168336 0 -9.5006412e-05 0 0)
(4.8250539e-09 0.0008718642 0 -1.0550333e-05 0 0)
(4.7937774e-09 -0.00087186519 0 -1.0550346e-05 0 0)
(6.3024248e-10 -0.002616834 0 -9.5006383e-05 0 0)
(-2.6940133e-09 -0.004364161 0 -0.00026425701 0 0)
(-2.7939215e-09 -0.006111141 0 -0.00051838177 0 0)
(-2.3980994e-09 0.0061111426 0 -0.00051838205 0 0)
(-3.1137568e-09 0.0043641609 0 -0.00026425721 0 0)
(1.0352576e-09 0.0026168323 0 -9.5006359e-05 0 0)
(4.5288008e-09 0.0008718638 0 -1.0550176e-05 0 0)
(4.5182326e-09 -0.00087186474 0 -1.0550168e-05 0 0)
(9.5950572e-10 -0.0026168327 0 -9.5006332e-05 0 0)
(-3.2108895e-09 -0.0043641606 0 -0.00026425711 0 0)
(-2.4576575e-09 -0.0061111419 0 -0.00051838191 0 0)
(-2.5711582e-09 0.0061111432 0 -0.00051838215 0 0)
(-2.4178301e-09 0.0043641605 0 -0.00026425728 0 0)
(6.4143797e-10 0.0026168318 0 -9.5006335e-05 0 0)
(4.5333008e-09 0.00087186329 0 -1.0550048e-05 0 0)
(4.4998903e-09 -0.00087186425 0 -1.0550058e-05 0 0)
(5.8217522e-10 -0.0026168322 0 -9.5006303e-05 0 0)
(-2.5044554e-09 -0.0043641602 0 -0.00026425719 0 0)
(-2.6294326e-09 -0.0061111424 0 -0.00051838202 0 0)
(-2.2463533e-09 0.0061111439 0 -0.00051838228 0 0)
(-2.9371728e-09 0.0043641601 0 -0.00026425737 0 0)
(9.8943854e-10 0.0026168305 0 -9.5006288e-05 0 0)
(4.243026e-09 0.00087186291 0 -1.0549898e-05 0 0)
(4.2287315e-09 -0.0008718638 0 -1.0549885e-05 0 0)
(9.1029289e-10 -0.0026168309 0 -9.5006255e-05 0 0)
(-3.0281428e-09 -0.0043641598 0 -0.00026425728 0 0)
(-2.2967142e-09 -0.0061111432 0 -0.00051838216 0 0)
(-2.4221878e-09 0.0061111444 0 -0.00051838237 0 0)
(-2.2427603e-09 0.0043641597 0 -0.00026425745 0 0)
(5.9806962e-10 0.00261683 0 -9.5006268e-05 0 0)
(4.2535568e-09 0.00087186244 0 -1.0549777e-05 0 0)
(4.215864e-09 -0.00087186337 0 -1.0549782e-05 0 0)
(5.3321092e-10 -0.0026168304 0 -9.5006229e-05 0 0)
(-2.3264711e-09 -0.0043641595 0 -0.00026425736 0 0)
(-2.474346e-09 -0.0061111437 0 -0.00051838226 0 0)
(-2.0983594e-09 0.0061111452 0 -0.00051838249 0 0)
(-2.7643476e-09 0.0043641594 0 -0.00026425753 0 0)
(9.4760366e-10 0.0026168289 0 -9.5006227e-05 0 0)
(3.9690958e-09 0.00087186207 0 -1.0549634e-05 0 0)
(3.950165e-09 -0.00087186292 0 -1.0549614e-05 0 0)
(8.6101809e-10 -0.0026168292 0 -9.5006184e-05 0 0)
(-2.8555941e-09 -0.0043641591 0 -0.00026425744 0 0)
(-2.1446046e-09 -0.0061111444 0 -0.00051838238 0 0)
(-2.2772956e-09 0.0061111456 0 -0.00051838258 0 0)
(-2.0725665e-09 0.004364159 0 -0.00026425761 0 0)
(5.5778171e-10 0.0026168284 0 -9.500621e-05 0 0)
(3.985247e-09 0.00087186164 0 -1.054952e-05 0 0)
(3.9426268e-09 -0.00087186254 0 -1.0549518e-05 0 0)
(4.8502092e-10 -0.0026168287 0 -9.500616e-05 0 0)
(-2.1580825e-09 -0.0043641587 0 -0.00026425752 0 0)
(-2.3272025e-09 -0.0061111449 0 -0.00051838248 0 0)
(-1.95499e-09 0.0061111463 0 -0.0005183827 0 0)
(-2.5969068e-09 0.0043641587 0 -0.0002642577 0 0)
(9.0805125e-10 0.0026168273 0 -9.5006172e-05 0 0)
(3.7065856e-09 0.00087186129 0 -1.0549382e-05 0 0)
(3.6832163e-09 -0.0008718621 0 -1.0549357e-05 0 0)
(8.1300947e-10 -0.0026168276 0 -9.5006119e-05 0 0)
(-2.6916776e-09 -0.0043641584 0 -0.0002642576 0 0)
(-2.0000716e-09 -0.0061111456 0 -0.0005183826 0 0)
(-2.1372441e-09 0.0061111467 0 -0.00051838278 0 0)
(-1.9085821e-09 0.0043641583 0 -0.00026425777 0 0)
(5.1926207e-10 0.0026168269 0 -9.5006157e-05 0 0)
(3.7281097e-09 0.00087186089 0 -1.0549274e-05 0 0)
(3.6808364e-09 -0.00087186177 0 -1.0549266e-05 0 0)
(4.3862399e-10 -0.0026168272 0 -9.5006098e-05 0 0)
(-1.9980077e-09 -0.0043641581 0 -0.00026425768 0 0)
(-2.187026e-09 -0.006111146 0 -0.00051838269 0 0)
(-1.8168948e-09 0.0061111473 0 -0.00051838289 0 0)
(-2.4363295e-09 0.0043641581 0 -0.00026425785 0 0)
(8.6977626e-10 0.0026168258 0 -9.5006123e-05 0 0)
(3.4553249e-09 0.00087186056 0 -1.0549143e-05 0 0)
(3.4283188e-09 -0.00087186133 0 -1.0549112e-05 0 0)
(7.6704345e-10 -0.0026168262 0 -9.500606e-05 0 0)
(-2.5354303e-09 -0.0043641578 0 -0.00026425776 0 0)
(-1.8622993e-09 -0.0061111466 0 -0.0005183828 0 0)
(-2.0025832e-09 0.0061111477 0 -0.00051838297 0 0)
(-1.7520145e-09 0.0043641577 0 -0.00026425792 0 0)
(4.81788e-10 0.0026168254 0 -9.500611e-05 0 0)
(3.4820742e-09 0.0008718602 0 -1.0549041e-05 0 0)
(3.4309075e-09 -0.00087186104 0 -1.0549028e-05 0 0)
(3.9456979e-10 -0.0026168258 0 -9.5006042e-05 0 0)
(-1.8454812e-09 -0.0043641575 0 -0.00026425783 0 0)
(-2.0532026e-09 -0.006111147 0 -0.00051838288 0 0)
(-1.6845248e-09 0.0061111483 0 -0.00051838308 0 0)
(-2.2833787e-09 0.0043641574 0 -0.000264258 0 0)
(8.3227453e-10 0.0026168245 0 -9.5006078e-05 0 0)
(3.2152898e-09 0.00087185989 0 -1.0548915e-05 0 0)
(3.1857044e-09 -0.00087186062 0 -1.054888e-05 0 0)
(7.2351067e-10 -0.0026168248 0 -9.5006007e-05 0 0)
(-2.3863162e-09 -0.0043641572 0 -0.0002642579 0 0)
(-1.7308008e-09 -0.0061111476 0 -0.00051838299 0 0)
(-1.8736792e-09 0.0061111486 0 -0.00051838315 0 0)
(-1.6034035e-09 0.0043641571 0 -0.00026425807 0 0)
(4.4503884e-10 0.0026168241 0 -9.5006066e-05 0 0)
(3.2471716e-09 0.00087185956 0 -1.0548818e-05 0 0)
(3.1930624e-09 -0.00087186036 0 -1.0548801e-05 0 0)
(3.5309266e-10 -0.0026168244 0 -9.5005991e-05 0 0)
(-1.7000897e-09 -0.0043641569 0 -0.00026425797 0 0)
(-1.9253748e-09 -0.006111148 0 -0.00051838307 0 0)
(-1.5581643e-09 0.0061111492 0 -0.00051838325 0 0)
(-2.1383878e-09 0.0043641569 0 -0.00026425815 0 0)
(7.9537076e-10 0.0026168232 0 -9.5006036e-05 0 0)
(2.9865214e-09 0.00087185926 0 -1.0548699e-05 0 0)
(2.9554469e-09 -0.00087185996 0 -1.0548661e-05 0 0)
(6.8254968e-10 -0.0026168235 0 -9.5005959e-05 0 0)
(-2.2440755e-09 -0.0043641566 0 -0.00026425805 0 0)
(-1.6053127e-09 -0.0061111486 0 -0.00051838317 0 0)
(-1.7507571e-09 0.0061111495 0 -0.00051838332 0 0)
(-1.4629324e-09 0.0043641566 0 -0.00026425821 0 0)
(4.0894679e-10 0.0026168229 0 -9.5006025e-05 0 0)
(3.0234646e-09 0.00087185896 0 -1.0548607e-05 0 0)
(2.9673713e-09 -0.00087185973 0 -1.0548587e-05 0 0)
(3.1423104e-10 -0.0026168232 0 -9.5005945e-05 0 0)
(-1.5616362e-09 -0.0043641563 0 -0.00026425811 0 0)
(-1.8033582e-09 -0.0061111489 0 -0.00051838324 0 0)
(-1.437974e-09 0.0061111501 0 -0.00051838342 0 0)
(-2.001459e-09 0.0043641563 0 -0.00026425829 0 0)
(7.59088e-10 0.002616822 0 -9.5005998e-05 0 0)
(2.7690667e-09 0.00087185869 0 -1.0548494e-05 0 0)
(2.7375016e-09 -0.00087185935 0 -1.0548454e-05 0 0)
(6.4414885e-10 -0.0026168223 0 -9.5005916e-05 0 0)
(-2.1086053e-09 -0.0043641561 0 -0.00026425818 0 0)
(-1.4857065e-09 -0.0061111494 0 -0.00051838334 0 0)
(-1.6339372e-09 0.0061111503 0 -0.00051838348 0 0)
(-1.3305918e-09 0.004364156 0 -0.00026425835 0 0)
(3.735867e-10 0.0026168218 0 -9.5005987e-05 0 0)
(2.8109997e-09 0.00087185841 0 -1.0548408e-05 0 0)
(2.7537872e-09 -0.00087185914 0 -1.0548385e-05 0 0)
(2.7791389e-10 -0.002616822 0 -9.5005904e-05 0 0)
(-1.4300383e-09 -0.0043641558 0 -0.00026425824 0 0)