/*--------------------------------*- C++ -*----------------------------------*\
| =========                 |                                                 |
| \\      /  F ield         | OpenFOAM: The Open Source CFD Toolbox           |
|  \\    /   O peration     | Version:  5.x                                   |
|   \\  /    A nd           | Web:      www.OpenFOAM.org                      |
|    \\/     M anipulation  |                                                 |
\*---------------------------------------------------------------------------*/
FoamFile
{
    version     2.0;
    format      ascii;
    class       volVectorField;
    location    "5";
    object      U;
}
// * * * * * * * * * * * * * * * * * * * * * * * * * * * * * * * * * * * * * //

dimensions      [0 1 -1 0 0 0 0];

internalField   nonuniform List<vector> 
1920
(
(-1.9726281e-07 1.1524928e-07 0)
(-5.2107419e-07 5.6952067e-08 0)
(-8.2254663e-07 -2.5001414e-08 0)
(-3.9493495e-07 -7.7536534e-08 0)
(3.9560954e-07 -7.8674234e-08 0)
(8.2295176e-07 -2.3970678e-08 0)
(5.2129714e-07 5.6270066e-08 0)
(1.971914e-07 1.1549327e-07 0)
(-7.4800861e-08 2.3112579e-07 0)
(-1.1528259e-06 4.2588547e-07 0)
(-1.7964471e-06 -6.1355816e-08 0)
(-9.1003712e-07 -6.1887069e-07 0)
(9.1163066e-07 -6.1669188e-07 0)
(1.7978276e-06 -6.290961e-08 0)
(1.1530665e-06 4.2739154e-07 0)
(7.509103e-08 2.3075172e-07 0)
(-1.4556372e-07 6.2152587e-07 0)
(-1.6965865e-06 9.8408274e-07 0)
(-2.5571195e-06 -1.4605464e-07 0)
(-1.212568e-06 -1.4364995e-06 0)
(1.2149756e-06 -1.4394828e-06 0)
(2.5585767e-06 -1.4263921e-07 0)
(1.6976564e-06 9.8273892e-07 0)
(1.4535099e-07 6.2248038e-07 0)
(-1.9565068e-07 1.1194547e-06 0)
(-2.135338e-06 1.6632606e-06 0)
(-2.9857922e-06 -2.8039063e-07 0)
(-1.4792609e-06 -2.5019962e-06 0)
(1.4817731e-06 -2.4974313e-06 0)
(2.9879398e-06 -2.8296895e-07 0)
(2.1359276e-06 1.6668266e-06 0)
(1.9599272e-07 1.1189962e-06 0)
(-2.5415964e-07 1.7213652e-06 0)
(-2.3158914e-06 2.4304678e-06 0)
(-3.2918394e-06 -4.647532e-07 0)
(-1.5295002e-06 -3.6886126e-06 0)
(1.5320857e-06 -3.6928758e-06 0)
(3.2934865e-06 -4.5906907e-07 0)
(2.3170504e-06 2.4290866e-06 0)
(2.540403e-07 1.7231467e-06 0)
(-2.4684697e-07 2.3684087e-06 0)
(-2.4182655e-06 3.2154209e-06 0)
(-3.2907473e-06 -6.5139258e-07 0)
(-1.6190366e-06 -4.9371438e-06 0)
(1.6210525e-06 -4.9310977e-06 0)
(3.2924641e-06 -6.5415045e-07 0)
(2.4188367e-06 3.2205696e-06 0)
(2.4707016e-07 2.3681672e-06 0)
(-2.6227905e-07 3.0067935e-06 0)
(-2.3005761e-06 3.9984756e-06 0)
(-3.244581e-06 -8.5063442e-07 0)
(-1.4987227e-06 -6.1587515e-06 0)
(1.5001844e-06 -6.1634095e-06 0)
(3.2455592e-06 -8.4372707e-07 0)
(2.3012114e-06 3.9974594e-06 0)
(2.6228568e-07 3.0091221e-06 0)
(-2.2331026e-07 3.6143734e-06 0)
(-2.1680748e-06 4.7302694e-06 0)
(-2.9560315e-06 -1.0294198e-06 0)
(-1.4504691e-06 -7.32332e-06 0)
(1.4511032e-06 -7.3169117e-06 0)
(2.9565478e-06 -1.0318878e-06 0)
(2.1683279e-06 4.7360372e-06 0)
(2.2332632e-07 3.6143864e-06 0)
(-2.1175794e-07 4.1588671e-06 0)
(-1.8930706e-06 5.403872e-06 0)
(-2.6868599e-06 -1.1994448e-06 0)
(-1.2455361e-06 -8.3699294e-06 0)
(1.245364e-06 -8.3742688e-06 0)
(2.6868026e-06 -1.1925518e-06 0)
(1.8929628e-06 5.4032434e-06 0)
(2.1185666e-07 4.1612738e-06 0)
(-1.6428735e-07 4.6352296e-06 0)
(-1.648921e-06 5.9895858e-06 0)
(-2.2801051e-06 -1.3355232e-06 0)
(-1.1203806e-06 -9.2977164e-06 0)
(1.1195073e-06 -9.2919292e-06 0)
(2.2793537e-06 -1.3375377e-06 0)
(1.6487792e-06 5.9949374e-06 0)
(1.6412996e-07 4.6353719e-06 0)
(-1.4138464e-07 5.0306977e-06 0)
(-1.3406715e-06 6.4927595e-06 0)
(-1.9307129e-06 -1.4551862e-06 0)
(-9.0442677e-07 -1.007461e-05 0)
(9.0284064e-07 -1.0078219e-05 0)
(1.9297282e-06 -1.449342e-06 0)
(1.3399677e-06 6.492323e-06 0)
(1.4152562e-07 5.032759e-06 0)
(-1.0099954e-07 5.3519118e-06 0)
(-1.0837102e-06 6.9019721e-06 0)
(-1.5355147e-06 -1.5418076e-06 0)
(-7.5646503e-07 -1.0719164e-05 0)
(7.5448038e-07 -1.0714606e-05 0)
(1.5338747e-06 -1.5434517e-06 0)
(1.0832575e-06 6.90616e-06 0)
(1.0075715e-07 5.3520215e-06 0)
(-7.7549998e-08 5.5988599e-06 0)
(-8.2144485e-07 7.2313314e-06 0)
(-1.2096472e-06 -1.6124285e-06 0)
(-5.7660617e-07 -1.122241e-05 0)
(5.7414377e-07 -1.1225196e-05 0)
(1.208062e-06 -1.6082196e-06 0)
(8.2042676e-07 7.2308246e-06 0)
(7.7686857e-08 5.600325e-06 0)
(-5.0142849e-08 5.7843653e-06 0)
(-6.109431e-07 7.4811892e-06 0)
(-9.0020197e-07 -1.6572083e-06 0)
(-4.4533372e-07 -1.161294e-05 0)
(4.4272251e-07 -1.1609811e-05 0)
(8.9811242e-07 -1.6587062e-06 0)
(6.1029246e-07 7.4838579e-06 0)
(4.9897018e-08 5.7843091e-06 0)
(-3.1970335e-08 5.9146769e-06 0)
(-4.2747048e-07 7.6690864e-06 0)
(-6.5297473e-07 -1.6908041e-06 0)
(-3.2032251e-07 -1.1895269e-05 0)
(3.1742486e-07 -1.1897371e-05 0)
(6.5105545e-07 -1.6884011e-06 0)
(4.2635345e-07 7.6682527e-06 0)
(3.2070469e-08 5.9154628e-06 0)
(-1.7278392e-08 6.0033873e-06 0)
(-2.8478796e-07 7.8004715e-06 0)
(-4.5008994e-07 -1.7073504e-06 0)
(-2.2426861e-07 -1.2098383e-05 0)
(2.2132336e-07 -1.2096594e-05 0)
(4.4781285e-07 -1.708992e-06 0)
(2.8399721e-07 7.8015562e-06 0)
(1.7072169e-08 6.0030628e-06 0)
(-5.8572872e-09 6.0579477e-06 0)
(-1.7823645e-07 7.8918279e-06 0)
(-2.9218242e-07 -1.7182078e-06 0)
(-1.5135573e-07 -1.223151e-05 0)
(1.4822574e-07 -1.2233198e-05 0)
(2.900457e-07 -1.7175393e-06 0)
(1.771065e-07 7.8904244e-06 0)
(5.9044918e-09 6.0580601e-06 0)
(-4.9925911e-10 6.0893669e-06 0)
(-9.7317302e-08 7.9489357e-06 0)
(-1.8124269e-07 -1.719578e-06 0)
(-9.1484584e-08 -1.2318065e-05 0)
(8.8327464e-08 -1.2317404e-05 0)
(1.7886693e-07 -1.7216653e-06 0)
(9.6400666e-08 7.9484975e-06 0)
(3.3962045e-10 6.0886824e-06 0)
(5.4112239e-09 6.10346e-06 0)
(-4.8035055e-08 7.9845475e-06 0)
(-9.6098585e-08 -1.719387e-06 0)
(-5.7285536e-08 -1.236638e-05 0)
(5.4019277e-08 -1.2367932e-05 0)
(9.3802951e-08 -1.7203007e-06 0)
(4.6909093e-08 7.9823509e-06 0)
(-5.4170989e-09 6.1029234e-06 0)
(5.3413815e-09 6.1075286e-06 0)
(-1.0478715e-08 8.0026551e-06 0)
(-4.8329453e-08 -1.7148989e-06 0)
(-2.5010511e-08 -1.2392381e-05 0)
(2.1750947e-08 -1.2392627e-05 0)
(4.5922558e-08 -1.7176894e-06 0)
(9.4679116e-09 8.0007821e-06 0)
(-5.4635008e-09 6.1064018e-06 0)
(7.8972002e-09 6.1049812e-06 0)
(4.3759056e-09 8.0116405e-06 0)
(-1.0441434e-08 -1.7110925e-06 0)
(-1.447292e-08 -1.2401351e-05 0)
(1.1227825e-08 -1.2402989e-05 0)
(8.1074389e-09 -1.7134252e-06 0)
(-5.4656857e-09 8.0084887e-06 0)
(-7.9432019e-09 6.1038208e-06 0)
(5.432721e-09 6.0998263e-06 0)
(1.7548325e-08 8.0134581e-06 0)
(1.8070394e-09 -1.7059005e-06 0)
(9.5540967e-10 -1.2402539e-05 0)
(-4.0903605e-09 -1.2403501e-05 0)
(-4.0913092e-09 -1.7095454e-06 0)
(-1.8565749e-08 8.0102613e-06 0)
(-5.5251925e-09 6.0982103e-06 0)
(6.5108453e-09 6.0935051e-06 0)
(1.5902783e-08 8.0128343e-06 0)
(1.4867805e-08 -1.7021525e-06 0)
(-3.7269731e-10 -1.2398327e-05 0)
(-2.572801e-09 -1.2400185e-05 0)
(-1.7017432e-08 -1.7057213e-06 0)
(-1.6873212e-08 8.0086839e-06 0)
(-6.5765884e-09 6.0917687e-06 0)
(3.4524414e-09 6.0877793e-06 0)
(1.8474825e-08 8.0102893e-06 0)
(1.1207222e-08 -1.6983139e-06 0)
(6.8243642e-09 -1.2393304e-05 0)
(-9.4982019e-09 -1.2394821e-05 0)
(-1.3135856e-08 -1.7028147e-06 0)
(-1.9368411e-08 8.0059449e-06 0)
(-3.5160141e-09 6.0856926e-06 0)
(4.2103401e-09 6.0829268e-06 0)
(1.1218482e-08 8.0080971e-06 0)
(1.4258093e-08 -1.6958566e-06 0)
(9.3015756e-10 -1.2387958e-05 0)
(-3.226223e-09 -1.239006e-05 0)
(-1.5956861e-08 -1.7004206e-06 0)
(-1.1956739e-08 8.0030587e-06 0)
(-4.2748182e-09 6.0807106e-06 0)
(1.3553841e-09 6.0794834e-06 0)
(1.0930869e-08 8.0060577e-06 0)
(5.7127847e-09 -1.6936975e-06 0)
(5.1605355e-09 -1.2384198e-05 0)
(-7.0431234e-09 -1.2386112e-05 0)
(-7.044975e-09 -1.6989007e-06 0)
(-1.1571915e-08 8.0008374e-06 0)
(-1.3862344e-09 6.0770206e-06 0)
(2.2998822e-09 6.077233e-06 0)
(3.2145898e-09 8.0050808e-06 0)
(6.4521308e-09 -1.6925586e-06 0)
(-1.6878687e-09 -1.2381627e-05 0)
(3.1499369e-10 -1.2383922e-05 0)
(-7.485182e-09 -1.697807e-06 0)
(-3.6273088e-09 7.9994091e-06 0)
(-2.3475166e-09 6.0746875e-06 0)
(-1.5247528e-10 6.0761926e-06 0)
(3.3544459e-09 8.0047439e-06 0)
(-2.1486143e-09 -1.6917135e-06 0)
(2.0944979e-09 -1.2380878e-05 0)
(-2.9779534e-09 -1.2383028e-05 0)
(1.5615794e-09 -1.6973476e-06 0)
(-3.6632138e-09 7.9990016e-06 0)
(1.5685974e-10 6.073509e-06 0)
(1.0893562e-09 6.0760427e-06 0)
(-3.1382177e-09 8.005331e-06 0)
(-7.203951e-10 -1.6915209e-06 0)
(-4.377367e-09 -1.2381308e-05 0)
(4.0452933e-09 -1.2383691e-05 0)
(4.4384809e-10 -1.6970986e-06 0)
(3.0881766e-09 7.99937e-06 0)
(-1.1130094e-09 6.0733521e-06 0)
(-1.0214794e-09 6.0766599e-06 0)
(-1.7410007e-09 8.0064432e-06 0)
(-7.9822833e-09 -1.6915068e-06 0)
(-1.9368791e-10 -1.2383077e-05 0)
(3.3544442e-10 -1.2385306e-05 0)
(8.1553453e-09 -1.6972463e-06 0)
(1.7752865e-09 8.0005642e-06 0)
(1.0590668e-09 6.0739363e-06 0)
(4.5972623e-10 6.077782e-06 0)
(-6.9200813e-09 8.0081429e-06 0)
(-5.2492437e-09 -1.6918759e-06 0)
(-6.0622192e-09 -1.2385593e-05 0)
(6.7054473e-09 -1.2387944e-05 0)
(5.6817142e-09 -1.6974302e-06 0)
(7.2051703e-09 8.0022532e-06 0)
(-4.6026063e-10 6.0751317e-06 0)
(-1.4329072e-09 6.0792995e-06 0)
(-4.4397926e-09 8.0101292e-06 0)
(-1.1229565e-08 -1.6923125e-06 0)
(-1.3975266e-09 -1.2388906e-05 0)
(2.4211023e-09 -1.2391074e-05 0)
(1.2052886e-08 -1.6978435e-06 0)
(4.7658479e-09 8.0044694e-06 0)
(1.4969198e-09 6.0767053e-06 0)
(1.9463201e-10 6.0810386e-06 0)
(-8.7057948e-09 8.0124228e-06 0)
(-7.4620692e-09 -1.6929669e-06 0)
(-6.8199129e-09 -1.239256e-05 0)
(8.2302799e-09 -1.2394768e-05 0)
(8.4494787e-09 -1.6981966e-06 0)
(9.2489813e-09 8.0069169e-06 0)
(-1.783621e-10 6.0785841e-06 0)
(-1.5820917e-09 6.0829415e-06 0)
(-5.5473274e-09 8.0148132e-06 0)
(-1.2602957e-08 -1.6936121e-06 0)
(-1.8369497e-09 -1.2396621e-05 0)
(3.4894875e-09 -1.2398619e-05 0)
(1.3886751e-08 -1.6986828e-06 0)
(6.0754586e-09 8.0096507e-06 0)
(1.6630145e-09 6.0806068e-06 0)
(1.1760048e-10 6.0849031e-06 0)
(-9.3048553e-09 8.0173402e-06 0)
(-8.227549e-09 -1.6943848e-06 0)
(-7.0179534e-09 -1.2400754e-05 0)
(8.9150133e-09 -1.2402737e-05 0)
(9.562489e-09 -1.6990732e-06 0)
(1.0005627e-08 8.012441e-06 0)
(-9.3089097e-11 6.0827512e-06 0)
(-1.6063278e-09 6.0869107e-06 0)
(-5.8044235e-09 8.0198521e-06 0)
(-1.2926385e-08 -1.6951025e-06 0)
(-1.8883195e-09 -1.2405066e-05 0)
(3.8804232e-09 -1.2406824e-05 0)
(1.4455264e-08 -1.6995494e-06 0)
(6.433752e-09 8.0153619e-06 0)
(1.6944012e-09 6.084914e-06 0)
(1.2014157e-10 6.0889001e-06 0)
(-9.3250795e-09 8.0224173e-06 0)
(-8.269517e-09 -1.6959025e-06 0)
(-6.9705935e-09 -1.2409306e-05 0)
(9.0699285e-09 -1.2411019e-05 0)
(9.7427106e-09 -1.6999291e-06 0)
(1.0084085e-08 8.0182444e-06 0)
(-9.5556381e-11 6.0871036e-06 0)
(-1.5826579e-09 6.090887e-06 0)
(-5.6903247e-09 8.0249146e-06 0)
(-1.2776933e-08 -1.6966227e-06 0)
(-1.8069321e-09 -1.2413612e-05 0)
(3.8722064e-09 -1.2415097e-05 0)
(1.4354188e-08 -1.7003744e-06 0)
(6.33017e-09 8.0211685e-06 0)
(1.6697677e-09 6.0892552e-06 0)
(1.4744033e-10 6.0928269e-06 0)
(-9.1200252e-09 8.0274339e-06 0)
(-8.0292367e-09 -1.697404e-06 0)
(-6.8627307e-09 -1.241778e-05 0)
(8.9240734e-09 -1.2419209e-05 0)
(9.4652212e-09 -1.7007368e-06 0)
(9.8556943e-09 8.0240115e-06 0)
(-1.2898789e-10 6.0913907e-06 0)
(-1.5469686e-09 6.0947504e-06 0)
(-5.4564551e-09 8.0298667e-06 0)
(-1.2471412e-08 -1.6980929e-06 0)
(-1.7203008e-09 -1.2421964e-05 0)
(3.6512064e-09 -1.2423177e-05 0)
(1.3945137e-08 -1.7011571e-06 0)
(6.0383895e-09 8.0268499e-06 0)
(1.6275516e-09 6.0934685e-06 0)
(1.7683127e-10 6.0966206e-06 0)
(-8.8591404e-09 8.0323152e-06 0)
(-7.7232829e-09 -1.6988336e-06 0)
(-6.7737712e-09 -1.2425989e-05 0)
(8.6247029e-09 -1.2427151e-05 0)
(8.9974774e-09 -1.701511e-06 0)
(9.5150895e-09 8.0295933e-06 0)
(-1.6822927e-10 6.0955138e-06 0)
(-1.5125834e-09 6.0984744e-06 0)
(-5.210628e-09 8.0346742e-06 0)
(-1.2149439e-08 -1.6994769e-06 0)
(-1.6706882e-09 -1.2430013e-05 0)
(3.3311955e-09 -1.2430979e-05 0)
(1.3421292e-08 -1.701919e-06 0)
(5.6919792e-09 8.0323099e-06 0)
(1.5836847e-09 6.0974986e-06 0)
(2.0155675e-10 6.1002767e-06 0)
(-8.6067621e-09 8.0370517e-06 0)
(-7.4336163e-09 -1.7001677e-06 0)
(-6.7209446e-09 -1.2433877e-05 0)
(8.2601681e-09 -1.2434803e-05 0)
(8.4742022e-09 -1.7022753e-06 0)
(9.1519185e-09 8.0349321e-06 0)
(-2.0423057e-10 6.0994465e-06 0)
(-1.4825174e-09 6.1020665e-06 0)
(-4.986248e-09 8.0393422e-06 0)
(-1.1854229e-08 -1.7007608e-06 0)
(-1.6567928e-09 -1.2437734e-05 0)
(2.9782777e-09 -1.2438492e-05 0)
(1.2875801e-08 -1.7026817e-06 0)
(5.3477485e-09 8.0375175e-06 0)
(1.5433277e-09 6.1013376e-06 0)
(2.2132399e-10 6.1038082e-06 0)
(-8.3771838e-09 8.0416549e-06 0)
(-7.1761501e-09 -1.7013997e-06 0)
(-6.6935087e-09 -1.2441439e-05 0)
(7.8812636e-09 -1.2442175e-05 0)
(7.9565042e-09 -1.7030476e-06 0)
(8.8015825e-09 8.0400152e-06 0)
(-2.3496639e-10 6.103192e-06 0)
(-1.4560288e-09 6.1055408e-06 0)
(-4.7847995e-09 8.043884e-06 0)
(-1.1586168e-08 -1.7019432e-06 0)
(-1.6613629e-09 -1.2445138e-05 0)
(2.6293524e-09 -1.2445733e-05 0)
(1.2348742e-08 -1.7034585e-06 0)
(5.0252947e-09 8.0424721e-06 0)
(1.5072244e-09 6.1049951e-06 0)
(2.3773274e-10 6.107228e-06 0)
(-8.1655552e-09 8.0461371e-06 0)
(-6.9412597e-09 -1.702532e-06 0)
(-6.6731269e-09 -1.2448692e-05 0)
(7.5157813e-09 -1.2449284e-05 0)
(7.4682607e-09 -1.7038372e-06 0)
(8.4744269e-09 8.0448502e-06 0)
(-2.6094706e-10 6.1067631e-06 0)
(-1.4315621e-09 6.1089079e-06 0)
(-4.5976512e-09 8.0483091e-06 0)
(-1.1331858e-08 -1.7030295e-06 0)
(-1.6657496e-09 -1.2452241e-05 0)
(2.303654e-09 -1.245272e-05 0)
(1.1854141e-08 -1.7042543e-06 0)
(4.7280865e-09 8.047186e-06 0)
(1.4746646e-09 6.1084853e-06 0)
(2.5244351e-10 6.1105441e-06 0)
(-7.9625802e-09 8.0505047e-06 0)
(-6.7138076e-09 -1.7035719e-06 0)
(-6.6435862e-09 -1.2455654e-05 0)
(7.1774746e-09 -1.2456146e-05 0)
(7.0157739e-09 -1.7046449e-06 0)
(8.1705027e-09 8.0494521e-06 0)
(-2.8330715e-10 6.1101738e-06 0)
(-1.4078118e-09 6.1121731e-06 0)
(-4.4154995e-09 8.0526202e-06 0)
(-1.1077302e-08 -1.7040282e-06 0)
(-1.6558581e-09 -1.2459061e-05 0)
(2.009651e-09 -1.2459466e-05 0)
(1.1394043e-08 -1.7050668e-06 0)
(4.4535234e-09 8.0516754e-06 0)
(1.4446778e-09 6.1118212e-06 0)
(2.6664247e-10 6.1137591e-06 0)
(-7.7602818e-09 8.0547573e-06 0)
(-6.4812311e-09 -1.7045293e-06 0)
(-6.5941014e-09 -1.2462341e-05 0)
(6.8715169e-09 -1.2462772e-05 0)
(6.5975943e-09 -1.7054663e-06 0)
(7.8863313e-09 8.0538374e-06 0)
(-3.0312366e-10 6.1134362e-06 0)
(-1.3839564e-09 6.1153371e-06 0)
(-4.2315302e-09 8.0568145e-06 0)
(-1.0812522e-08 -1.7049497e-06 0)
(-1.6234448e-09 -1.2465612e-05 0)
(1.74927e-09 -1.2465978e-05 0)
(1.0965406e-08 -1.7058896e-06 0)
(4.197309e-09 8.0559563e-06 0)
(1.4164283e-09 6.1150139e-06 0)
(2.8101848e-10 6.116872e-06 0)
(-7.5535243e-09 8.0588899e-06 0)
(-6.2356868e-09 -1.7054145e-06 0)
(-6.5194067e-09 -1.2468764e-05 0)
(6.5979442e-09 -1.2469166e-05 0)
(6.2092297e-09 -1.7062936e-06 0)
(7.617743e-09 8.0580214e-06 0)
(-3.2124062e-10 6.1165599e-06 0)
(-1.3595944e-09 6.1183976e-06 0)
(-4.0418387e-09 8.0608853e-06 0)
(-1.0532199e-08 -1.7058042e-06 0)
(-1.565342e-09 -1.2471905e-05 0)
(1.5206157e-09 -1.2472259e-05 0)
(1.0563401e-08 -1.7067143e-06 0)
(3.9551872e-09 8.060043e-06 0)
(1.3892963e-09 6.1180718e-06 0)
(2.9588946e-10 6.1198799e-06 0)
(-7.3398324e-09 8.062895e-06 0)
(-5.9736997e-09 -1.7062376e-06 0)
(-6.4185786e-09 -1.2474931e-05 0)
(6.3539179e-09 -1.2475329e-05 0)
(5.8453714e-09 -1.707118e-06 0)
(7.3609566e-09 8.0620172e-06 0)
(-3.3826896e-10 6.1195522e-06 0)
(-1.3346126e-09 6.1213512e-06 0)
(-3.844884e-09 8.0648244e-06 0)
(-1.0234821e-08 -1.7066013e-06 0)
(-1.4820373e-09 -1.2477944e-05 0)
(1.3197898e-09 -1.2478308e-05 0)
(1.0182967e-08 -1.7075318e-06 0)
(3.7235497e-09 8.0639473e-06 0)
(1.3628587e-09 6.121001e-06 0)
(3.1133733e-10 6.1227789e-06 0)
(-7.1187064e-09 8.0667642e-06 0)
(-5.6950336e-09 -1.7070076e-06 0)
(-6.2935987e-09 -1.2480848e-05 0)
(6.135238e-09 -1.2481259e-05 0)
(5.5009468e-09 -1.7079308e-06 0)
(7.1129245e-09 8.0658355e-06 0)
(-3.5463004e-10 6.1224184e-06 0)
(-1.3090701e-09 6.124194e-06 0)
(-3.6407555e-09 8.0686238e-06 0)
(-9.921495e-09 -1.7073494e-06 0)
(-1.376281e-09 -1.2483736e-05 0)
(1.1421074e-09 -1.2484123e-05 0)
(9.8195448e-09 -1.7083339e-06 0)
(3.49959e-09 8.0676789e-06 0)
(1.3368482e-09 6.1238062e-06 0)
(3.2731054e-10 6.1255653e-06 0)
(-6.8909265e-09 8.0704898e-06 0)
(-5.4015311e-09 -1.7077322e-06 0)
(-6.148096e-09 -1.2486519e-05 0)
(5.9373331e-09 -1.2486953e-05 0)
(5.1715992e-09 -1.7087242e-06 0)
(6.8713851e-09 8.0694849e-06 0)
(-3.7060063e-10 6.1251624e-06 0)
(-1.2831149e-09 6.1269226e-06 0)
(-3.4305384e-09 8.072276e-06 0)
(-9.5948901e-09 -1.7080553e-06 0)
(-1.2519779e-09 -1.2489282e-05 0)
(9.8287599e-10 -1.24897e-05 0)
(9.4693902e-09 -1.7091134e-06 0)
(3.2812812e-09 8.0712451e-06 0)
(1.3111145e-09 6.1264906e-06 0)
(3.4369137e-10 6.128236e-06 0)
(-6.6580011e-09 8.0740651e-06 0)
(-5.0961817e-09 -1.7084177e-06 0)
(-5.9864074e-09 -1.2491945e-05 0)
(5.7558689e-09 -1.2492409e-05 0)
(4.8538706e-09 -1.7094918e-06 0)
(6.6348008e-09 8.0729718e-06 0)
(-3.8634947e-10 6.127787e-06 0)
(-1.2569327e-09 6.1295342e-06 0)
(-3.2158443e-09 8.0757752e-06 0)
(-9.2584445e-09 -1.7087246e-06 0)
(-1.1134066e-09 -1.2494585e-05 0)
(8.3785142e-10 -1.2495038e-05 0)
(9.1296641e-09 -1.7098646e-06 0)
(3.0672849e-09 8.0746519e-06 0)
(1.2855935e-09 6.1290567e-06 0)
(3.6033635e-10 6.1307887e-06 0)
(-6.421778e-09 8.0774852e-06 0)
(-4.7824594e-09 -1.709069e-06 0)
(-5.8129491e-09 -1.2497129e-05 0)
(5.5870771e-09 -1.2497625e-05 0)
(4.5452166e-09 -1.7102285e-06 0)
(6.4022532e-09 8.0763015e-06 0)
(-4.019656e-10 6.1302944e-06 0)
(-1.230716e-09 6.1320271e-06 0)
(-2.9984947e-09 8.0791175e-06 0)
(-8.9158257e-09 -1.7093617e-06 0)
(-9.6472716e-10 -1.2499648e-05 0)
(7.0346026e-10 -1.2500136e-05 0)
(8.798393e-09 -1.7105831e-06 0)
(2.8568359e-09 8.0779037e-06 0)
(1.2602824e-09 6.1315065e-06 0)
(3.7709894e-10 6.1332223e-06 0)
(-6.1841913e-09 8.0807469e-06 0)
(-4.4638924e-09 -1.7096897e-06 0)
(-5.6318411e-09 -1.2502074e-05 0)
(5.4278911e-09 -1.2502601e-05 0)
(4.2439263e-09 -1.7109307e-06 0)
(6.173323e-09 8.0794781e-06 0)
(-4.1748044e-10 6.1326863e-06 0)
(-1.2046477e-09 6.1344005e-06 0)
(-2.7803207e-09 8.0823003e-06 0)
(-8.570594e-09 -1.7099696e-06 0)
(-8.0970491e-10 -1.2504472e-05 0)
(5.7686439e-10 -1.2504992e-05 0)
(8.4743607e-09 -1.7112661e-06 0)
(2.6496205e-09 8.0810044e-06 0)
(1.2352201e-09 6.1338416e-06 0)
(3.9384127e-10 6.1355364e-06 0)
(-5.9471067e-09 8.0838488e-06 0)
(-4.143806e-09 -1.7102826e-06 0)
(-5.4467147e-09 -1.2506781e-05 0)
(5.2759543e-09 -1.2507335e-05 0)
(3.9489941e-09 -1.7115962e-06 0)
(5.9479706e-09 8.0825051e-06 0)
(-4.3288558e-10 6.1349646e-06 0)
(-1.1788937e-09 6.1366548e-06 0)
(-2.5630459e-09 8.0853232e-06 0)
(-8.2260116e-09 -1.7105508e-06 0)
(-6.5158496e-10 -1.250906e-05 0)
(4.5592692e-10 -1.2509608e-05 0)
(8.1569663e-09 -1.7119116e-06 0)
(2.4456612e-09 8.0839572e-06 0)
(1.2104721e-09 6.1360639e-06 0)
(4.1043955e-10 6.1377317e-06 0)
(-5.7122338e-09 8.0867909e-06 0)
(-3.8251859e-09 -1.7108497e-06 0)
(-5.2606402e-09 -1.2511254e-05 0)
(5.1295557e-09 -1.2511831e-05 0)
(3.6599711e-09 -1.7122236e-06 0)
(5.7264263e-09 8.0853856e-06 0)
(-4.481467e-10 6.137131e-06 0)
(-1.1535991e-09 6.1387908e-06 0)
(-2.3482223e-09 8.0881868e-06 0)
(-7.884949e-09 -1.7111067e-06 0)
(-4.9306152e-10 -1.2513416e-05 0)
(3.3912537e-10 -1.2513987e-05 0)
(7.846077e-09 -1.712519e-06 0)
(2.2452123e-09 8.0867652e-06 0)
(1.1861177e-09 6.1381752e-06 0)
(4.2678629e-10 6.1398097e-06 0)
(-5.481082e-09 8.0895746e-06 0)
(-3.5106169e-09 -1.7113922e-06 0)
(-5.0761285e-09 -1.2515497e-05 0)
(4.9875294e-09 -1.2516092e-05 0)
(3.3768203e-09 -1.7128125e-06 0)
(5.5090942e-09 8.0881228e-06 0)
(-4.6321456e-10 6.1391874e-06 0)
(-1.1288877e-09 6.1408106e-06 0)
(-2.1372004e-09 8.0908933e-06 0)
(-7.5498519e-09 -1.7116386e-06 0)
(-3.3630211e-10 -1.2517545e-05 0)
(2.2544359e-10 -1.2518132e-05 0)
(7.541889e-09 -1.7130881e-06 0)
(2.0486714e-09 8.0894314e-06 0)
(1.1622413e-09 6.1401775e-06 0)
(4.4279036e-10 6.1417726e-06 0)
(-5.2549431e-09 8.0922027e-06 0)
(-3.2022706e-09 -1.7119111e-06 0)
(-4.8951724e-09 -1.2519515e-05 0)
(4.8491451e-09 -1.2520121e-05 0)
(3.0997853e-09 -1.7133633e-06 0)
(5.2964727e-09 8.0907196e-06 0)
(-4.7803328e-10 6.1411359e-06 0)
(-1.1048619e-09 6.1427165e-06 0)
(-1.9311209e-09 8.0934457e-06 0)
(-7.2227436e-09 -1.7121471e-06 0)
(-1.8299899e-10 -1.252145e-05 0)
(1.1426207e-10 -1.2522048e-05 0)
(7.2448076e-09 -1.7136195e-06 0)
(1.8565087e-09 8.091959e-06 0)
(1.1389251e-09 6.1420731e-06 0)
(4.5837665e-10 6.143623e-06 0)
(-5.0348899e-09 8.0946786e-06 0)
(-2.901919e-09 -1.712407e-06 0)
(-4.7193053e-09 -1.2523312e-05 0)
(4.7140022e-09 -1.2523924e-05 0)
(2.8292802e-09 -1.7138768e-06 0)
(5.0890923e-09 8.0931792e-06 0)
(-4.9254633e-10 6.142979e-06 0)
(-1.0816048e-09 6.1445117e-06 0)
(-1.7309181e-09 8.0958482e-06 0)
(-6.9052485e-09 -1.7126329e-06 0)
(-3.4431056e-11 -1.2525139e-05 0)
(5.2576959e-12 -1.2525742e-05 0)
(6.9553481e-09 -1.7141143e-06 0)
(1.6692111e-09 8.0943512e-06 0)
(1.1162447e-09 6.1438646e-06 0)
(4.7348482e-10 6.1453644e-06 0)
(-4.8217849e-09 8.0970069e-06 0)
(-2.6109622e-09 -1.7128805e-06 0)
(-4.5496656e-09 -1.2526895e-05 0)
(4.5819386e-09 -1.2527507e-05 0)
(2.5658017e-09 -1.7143543e-06 0)
(4.8874689e-09 8.0955052e-06 0)
(-5.067007e-10 6.1447194e-06 0)
(-1.0591809e-09 6.1461996e-06 0)
(-1.5373313e-09 8.0981053e-06 0)
(-6.5986248e-09 -1.7130963e-06 0)
(1.0847356e-10 -1.2528616e-05 0)
(-1.0168131e-10 -1.2529218e-05 0)
(6.6740606e-09 -1.7145739e-06 0)
(1.4872427e-09 8.0966116e-06 0)
(1.0942662e-09 6.1455548e-06 0)
(4.8806841e-10 6.1470003e-06 0)
(-4.6162945e-09 8.0991926e-06 0)
(-2.3304636e-09 -1.7133318e-06 0)
(-4.3870581e-09 -1.253027e-05 0)
(4.4529541e-09 -1.2530878e-05 0)
(2.3098622e-09 -1.7147971e-06 0)
(4.6920709e-09 8.0977012e-06 0)
(-5.2044957e-10 6.1463602e-06 0)
(-1.0376375e-09 6.147784e-06 0)
(-1.3509193e-09 8.1002225e-06 0)
(-6.3038019e-09 -1.7135377e-06 0)
(2.4507936e-10 -1.2531888e-05 0)
(-2.0652471e-10 -1.2532486e-05 0)
(6.4014737e-09 -1.7149998e-06 0)
(1.3110169e-09 8.098744e-06 0)
(1.0730441e-09 6.1471469e-06 0)
(5.0209339e-10 6.1485348e-06 0)
(-4.418905e-09 8.101241e-06 0)
(-2.0611868e-09 -1.7137612e-06 0)
(-4.2320111e-09 -1.2533444e-05 0)
(4.3271501e-09 -1.2534043e-05 0)
(2.0619422e-09 -1.7152072e-06 0)
(4.5032981e-09 8.0997713e-06 0)
(-5.3375387e-10 6.1479044e-06 0)
(-1.0170071e-09 6.1492689e-06 0)
(-1.1720771e-09 8.1022052e-06 0)
(-6.0214185e-09 -1.7139573e-06 0)
(3.7499141e-10 -1.2534964e-05 0)
(-3.0915449e-10 -1.2535552e-05 0)
(6.138056e-09 -1.7153939e-06 0)
(1.140879e-09 8.1007526e-06 0)
(1.0526211e-09 6.1486442e-06 0)
(5.1553713e-10 6.1499719e-06 0)
(-4.2299415e-09 8.1031579e-06 0)
(-1.8036321e-09 -1.7141692e-06 0)
(-4.0848253e-09 -1.2536425e-05 0)
(4.2046834e-09 -1.2537011e-05 0)
(1.8224577e-09 -1.7155862e-06 0)
(4.3214692e-09 8.1017194e-06 0)
(-5.4658298e-10 6.1493555e-06 0)
(-9.9730804e-10 6.1506587e-06 0)
(-1.0010535e-09 8.1040594e-06 0)
(-5.7518596e-09 -1.7143555e-06 0)
(4.9801035e-10 -1.253785e-05 0)
(-4.0940583e-10 -1.2538425e-05 0)
(5.8841913e-09 -1.715758e-06 0)
(9.7709676e-10 8.1026415e-06 0)
(1.0330278e-09 6.15005e-06 0)
(5.2838708e-10 6.151316e-06 0)
(-4.0495856e-09 8.1049493e-06 0)
(-1.558072e-09 -1.7145559e-06 0)
(-3.9456174e-09 -1.2539219e-05 0)
(4.0857324e-09 -1.253979e-05 0)
(1.5917403e-09 -1.715936e-06 0)
(4.1468165e-09 8.10355e-06 0)
(-5.5891482e-10 6.1507171e-06 0)
(-9.7854691e-10 6.1519577e-06 0)
(-8.3796918e-10 8.105791e-06 0)
(-5.4952924e-09 -1.7147326e-06 0)
(6.1409348e-10 -1.2540554e-05 0)
(-5.0709737e-10 -1.2541113e-05 0)
(5.6401652e-09 -1.7160938e-06 0)
(8.1985748e-10 8.1044151e-06 0)
(1.0142834e-09 6.1513681e-06 0)
(5.4063945e-10 6.1525714e-06 0)
(-3.8778947e-09 8.1066213e-06 0)
(-1.3245847e-09 -1.7149218e-06 0)
(-3.8143569e-09 -1.2541836e-05 0)
(3.9704725e-09 -1.2542388e-05 0)
(1.3700274e-09 -1.7162585e-06 0)
(3.9794861e-09 8.1052676e-06 0)
(-5.7073548e-10 6.1519926e-06 0)
(-9.6071975e-10 6.1531701e-06 0)
(-6.8283329e-10 8.1074062e-06 0)
(-5.2516992e-09 -1.7150891e-06 0)
(7.2332198e-10 -1.2543084e-05 0)
(-6.0205273e-10 -1.2543624e-05 0)
(5.4061596e-09 -1.7164034e-06 0)
(6.6926853e-10 8.1060779e-06 0)
(9.9639677e-10 6.152602e-06 0)
(5.5229834e-10 6.1537424e-06 0)
(-3.7148184e-09 8.1081798e-06 0)
(-1.1030845e-09 -1.7152673e-06 0)
(-3.6908975e-09 -1.2544283e-05 0)
(3.8590592e-09 -1.2544814e-05 0)
(1.1574582e-09 -1.7165556e-06 0)
(3.8195407e-09 8.1068766e-06 0)
(-5.8203871e-10 6.153186e-06 0)
(-9.4381349e-10 6.1543003e-06 0)
(-5.3556029e-10 8.1089109e-06 0)
(-5.0209073e-09 -1.7154253e-06 0)
(8.25873e-10 -1.2545448e-05 0)
(-6.9411504e-10 -1.2545968e-05 0)
(5.1822529e-09 -1.7166884e-06 0)
(5.2536154e-10 8.1076347e-06 0)
(9.7936695e-10 6.1537555e-06 0)
(5.6337423e-10 6.1548334e-06 0)
(-3.5602163e-09 8.1096308e-06 0)
(-8.9335013e-10 -1.7155929e-06 0)
(-3.5750038e-09 -1.2546567e-05 0)
(3.7516179e-09 -1.2547077e-05 0)
(9.5407572e-10 -1.716829e-06 0)
(3.6669664e-09 8.1083818e-06 0)
(-5.9282523e-10 6.1543007e-06 0)
(-9.2780765e-10 6.1553526e-06 0)
(-3.9598525e-10 8.1103109e-06 0)
(-4.8026179e-09 -1.7157418e-06 0)
(9.2199637e-10 -1.2547653e-05 0)
(-7.8315648e-10 -1.2548152e-05 0)
(4.9684254e-09 -1.7169507e-06 0)
(3.8809835e-10 8.1090898e-06 0)
(9.6318484e-10 6.1548323e-06 0)
(5.7388326e-10 6.1558485e-06 0)
(-3.4138729e-09 8.1109802e-06 0)
(-6.9504992e-10 -1.715899e-06 0)
(-3.466374e-09 -1.2548697e-05 0)
(3.6482372e-09 -1.2549183e-05 0)
(7.5983252e-10 -1.7170804e-06 0)
(3.5216795e-09 8.1097877e-06 0)
(-6.0310183e-10 6.1553406e-06 0)
(-9.1267546e-10 6.1563312e-06 0)
(-2.6387799e-10 8.1116121e-06 0)
(-4.5964298e-09 -1.716039e-06 0)
(1.011995e-09 -1.2549708e-05 0)
(-8.6908353e-10 -1.2550184e-05 0)
(4.7645662e-09 -1.7171918e-06 0)
(2.5737827e-10 8.110448e-06 0)
(9.4783406e-10 6.155836e-06 0)
(5.8384607e-10 6.1567918e-06 0)
(-3.2755119e-09 8.1122334e-06 0)
(-5.0776464e-10 -1.7161862e-06 0)
(-3.3646578e-09 -1.255068e-05 0)
(3.5489663e-09 -1.2551143e-05 0)
(5.7459785e-10 -1.7173114e-06 0)
(3.3835346e-09 8.1110989e-06 0)
(-6.1288063e-10 6.1563091e-06 0)
(-8.9838512e-10 6.1572399e-06 0)
(-1.3895596e-10 8.11282e-06 0)
(-4.4018622e-09 -1.7163176e-06 0)
(1.0962086e-09 -1.255162e-05 0)
(-9.5183961e-10 -1.2552073e-05 0)
(4.5704826e-09 -1.7174133e-06 0)
(1.3304581e-10 8.1117138e-06 0)
(9.3329216e-10 6.1567702e-06 0)
(5.9328696e-10 6.1576673e-06 0)
(-3.144809e-09 8.113396e-06 0)
(-3.3100744e-10 -1.7164551e-06 0)
(-3.269473e-09 -1.2552523e-05 0)
(3.4538147e-09 -1.2552963e-05 0)
(3.9816675e-10 -1.7175235e-06 0)
(3.2523337e-09 8.1123199e-06 0)
(-6.2217817e-10 6.15721e-06 0)
(-8.8490106e-10 6.1580827e-06 0)
(-2.0895782e-11 8.1139397e-06 0)
(-4.2183737e-09 -1.7165781e-06 0)
(1.1750008e-09 -1.2553397e-05 0)
(-1.031405e-09 -1.2553826e-05 0)
(4.3859104e-09 -1.7176166e-06 0)
(1.4898613e-11 8.1128915e-06 0)
(9.1953178e-10 6.1576383e-06 0)
(6.0223306e-10 6.1584787e-06 0)
(-3.0214031e-09 8.1144731e-06 0)
(-1.6424107e-10 -1.7167062e-06 0)
(-3.1804172e-09 -1.2554235e-05 0)
(3.3627534e-09 -1.2554651e-05 0)
(2.3026982e-10 -1.7177181e-06 0)
(3.1278343e-09 8.1134549e-06 0)
(-6.3101472e-10 6.1580465e-06 0)
(-8.7218467e-10 6.1588632e-06 0)
(9.0656484e-11 8.1149764e-06 0)
(-4.0453793e-09 -1.7168212e-06 0)
(1.2487481e-09 -1.2555044e-05 0)
(-1.1077956e-09 -1.2555451e-05 0)
(4.2105241e-09 -1.7178031e-06 0)
(-9.7304924e-11 8.1139855e-06 0)
(9.0652145e-10 6.1584438e-06 0)
(6.107137e-10 6.1592296e-06 0)
(-2.9049066e-09 8.1154695e-06 0)
(-6.8930572e-12 -1.7169403e-06 0)
(-3.0970786e-09 -1.2555821e-05 0)
(3.2757178e-09 -1.2556214e-05 0)
(7.0582856e-11 -1.7178964e-06 0)
(3.009757e-09 8.1145084e-06 0)
(-6.3941357e-10 6.1588219e-06 0)
(-8.6019539e-10 6.1595849e-06 0)
(1.9607668e-10 8.1159347e-06 0)
(-3.8822647e-09 -1.7170474e-06 0)
(1.3178315e-09 -1.255657e-05 0)
(-1.1810607e-09 -1.2556954e-05 0)
(4.0439475e-09 -1.717974e-06 0)
(-2.0383807e-10 8.1149999e-06 0)
(8.9422676e-10 6.1591899e-06 0)
(6.187597e-10 6.1599233e-06 0)
(-2.7949136e-09 8.1163899e-06 0)
(1.4163175e-10 -1.7171579e-06 0)
(-3.0190441e-09 -1.2557288e-05 0)
(3.192611e-09 -1.2557659e-05 0)
(-8.1263573e-11 -1.7180597e-06 0)
(2.897794e-09 8.1154841e-06 0)
(-6.4740031e-10 6.1595395e-06 0)
(-8.4889133e-10 6.1602511e-06 0)
(2.9575477e-10 8.1168191e-06 0)
(-3.7283982e-09 -1.7172575e-06 0)
(1.3826298e-09 -1.255798e-05 0)
(-1.2512792e-09 -1.2558342e-05 0)
(3.8857633e-09 -1.7181304e-06 0)
(-3.0499912e-10 8.1159385e-06 0)
(8.8261087e-10 6.1598795e-06 0)
(6.2640285e-10 6.1605629e-06 0)
(-2.6910076e-09 8.1172385e-06 0)
(2.8194054e-10 -1.7173596e-06 0)
(-2.9459053e-09 -1.2558643e-05 0)
(3.1133078e-09 -1.2558992e-05 0)
(-2.2567489e-10 -1.7182091e-06 0)
(2.7916153e-09 8.1163861e-06 0)
(-6.5500229e-10 6.1602021e-06 0)
(-8.3822997e-10 6.1608647e-06 0)
(3.9008847e-10 8.1176337e-06 0)
(-3.5831414e-09 -1.717452e-06 0)
(1.4435146e-09 -1.255928e-05 0)
(-1.3185567e-09 -1.2559622e-05 0)
(3.7355223e-09 -1.7182733e-06 0)
(-4.0110489e-10 8.1168053e-06 0)
(8.7163554e-10 6.1605156e-06 0)
(6.3367553e-10 6.1611515e-06 0)
(-2.5927677e-09 8.1180192e-06 0)
(4.146435e-10 -1.7175461e-06 0)
(-2.8772638e-09 -1.2559891e-05 0)
(3.0376587e-09 -1.2560219e-05 0)
(-3.6308413e-10 -1.7183453e-06 0)
(2.6908753e-09 8.117218e-06 0)
(-6.6224799e-10 6.1608125e-06 0)
(-8.2816865e-10 6.1614285e-06 0)
(4.7947776e-10 8.1183823e-06 0)
(-3.4458569e-09 -1.7176315e-06 0)
(1.5008463e-09 -1.2560477e-05 0)
(-1.3830214e-09 -1.2560798e-05 0)
(3.5927523e-09 -1.7184035e-06 0)
(-4.9248523e-10 8.1176036e-06 0)
(8.6126162e-10 6.1611008e-06 0)
(6.4061013e-10 6.1616916e-06 0)
(-2.4997732e-09 8.1187359e-06 0)
(5.4034675e-10 -1.717718e-06 0)
(-2.8127343e-09 -1.2561038e-05 0)
(2.9654944e-09 -1.2561346e-05 0)
(-4.9394417e-10 -1.7184695e-06 0)
(2.5952182e-09 8.1179832e-06 0)
(-6.6916681e-10 6.1613734e-06 0)
(-8.1866518e-10 6.1619453e-06 0)
(5.6432022e-10 8.1190686e-06 0)
(-3.3159154e-09 -1.7177967e-06 0)
(1.5549717e-09 -1.2561575e-05 0)
(-1.4448201e-09 -1.2561877e-05 0)
(3.4569654e-09 -1.7185221e-06 0)
(-5.7947798e-10 8.1183369e-06 0)
(8.5144948e-10 6.1616378e-06 0)
(6.4723897e-10 6.1621859e-06 0)
(-2.411609e-09 8.1193917e-06 0)
(6.5964642e-10 -1.7178758e-06 0)
(-2.7519475e-09 -1.2562089e-05 0)
(2.8966295e-09 -1.2562378e-05 0)
(-6.1872058e-10 -1.7185822e-06 0)
(2.5042833e-09 8.1186848e-06 0)
(-6.7578843e-10 6.1618872e-06 0)