/*--------------------------------*- C++ -*----------------------------------*\
| =========                 |                                                 |
| \\      /  F ield         | OpenFOAM: The Open Source CFD Toolbox           |
|  \\    /   O peration     | Version:  5.x                                   |
|   \\  /    A nd           | Web:      www.OpenFOAM.org                      |
|    \\/     M anipulation  |                                                 |
\*---------------------------------------------------------------------------*/
FoamFile
{
    version     2.0;
    format      ascii;
    class       volScalarField;
    location    "6";
    object      p;
}
// * * * * * * * * * * * * * * * * * * * * * * * * * * * * * * * * * * * * * //

dimensions      [0 2 -2 0 0 0 0];

internalField   nonuniform List<scalar> 
1920
(
-6535.057
-6535.064
-6535.0483
-6535.033
-6535.033
-6535.0483
-6535.064
-6535.057
-6535.0521
-6535.0587
-6535.0502
-6535.04
-6535.04
-6535.0502
-6535.0587
-6535.0521
-6535.048
-6535.0547
-6535.0529
-6535.0476
-6535.0476
-6535.0529
-6535.0547
-6535.048
-6535.0453
-6535.0536
-6535.0561
-6535.0541
-6535.0541
-6535.0561
-6535.0536
-6535.0453
-6535.0454
-6535.055
-6535.0602
-6535.0601
-6535.0601
-6535.0602
-6535.055
-6535.0454
-6535.0481
-6535.0585
-6535.0652
-6535.0664
-6535.0664
-6535.0652
-6535.0585
-6535.0481
-6535.0532
-6535.0638
-6535.0713
-6535.0732
-6535.0732
-6535.0713
-6535.0638
-6535.0532
-6535.0604
-6535.0708
-6535.0784
-6535.0808
-6535.0808
-6535.0784
-6535.0708
-6535.0604
-6535.0695
-6535.0792
-6535.0866
-6535.0891
-6535.0891
-6535.0866
-6535.0792
-6535.0695
-6535.0801
-6535.0889
-6535.0956
-6535.0981
-6535.0981
-6535.0956
-6535.089
-6535.0801
-6535.0919
-6535.0996
-6535.1055
-6535.1079
-6535.1079
-6535.1056
-6535.0996
-6535.0919
-6535.1045
-6535.1111
-6535.1162
-6535.1182
-6535.1182
-6535.1162
-6535.1111
-6535.1045
-6535.1178
-6535.1231
-6535.1274
-6535.1292
-6535.1292
-6535.1274
-6535.1231
-6535.1178
-6535.1313
-6535.1356
-6535.1391
-6535.1406
-6535.1406
-6535.1391
-6535.1356
-6535.1314
-6535.1451
-6535.1484
-6535.1511
-6535.1524
-6535.1524
-6535.1511
-6535.1484
-6535.1451
-6535.1589
-6535.1614
-6535.1635
-6535.1645
-6535.1645
-6535.1635
-6535.1614
-6535.1589
-6535.1727
-6535.1745
-6535.176
-6535.1768
-6535.1768
-6535.1761
-6535.1745
-6535.1727
-6535.1864
-6535.1876
-6535.1888
-6535.1894
-6535.1894
-6535.1888
-6535.1877
-6535.1864
-6535.1999
-6535.2008
-6535.2016
-6535.202
-6535.202
-6535.2016
-6535.2008
-6535.1999
-6535.2134
-6535.2139
-6535.2145
-6535.2148
-6535.2148
-6535.2145
-6535.2139
-6535.2134
-6535.2267
-6535.227
-6535.2274
-6535.2276
-6535.2276
-6535.2274
-6535.227
-6535.2267
-6535.2399
-6535.2401
-6535.2403
-6535.2405
-6535.2405
-6535.2404
-6535.2401
-6535.2399
-6535.253
-6535.2532
-6535.2533
-6535.2534
-6535.2534
-6535.2533
-6535.2532
-6535.2531
-6535.2661
-6535.2662
-6535.2663
-6535.2664
-6535.2664
-6535.2663
-6535.2662
-6535.2661
-6535.2792
-6535.2792
-6535.2792
-6535.2793
-6535.2793
-6535.2793
-6535.2792
-6535.2792
-6535.2922
-6535.2922
-6535.2922
-6535.2923
-6535.2923
-6535.2922
-6535.2922
-6535.2922
-6535.3051
-6535.3052
-6535.3052
-6535.3052
-6535.3052
-6535.3052
-6535.3052
-6535.3051
-6535.3181
-6535.3181
-6535.3182
-6535.3182
-6535.3182
-6535.3182
-6535.3181
-6535.3181
-6535.3311
-6535.3311
-6535.3311
-6535.3311
-6535.3311
-6535.3311
-6535.3311
-6535.3311
-6535.344
-6535.3441
-6535.3441
-6535.3441
-6535.3441
-6535.3441
-6535.3441
-6535.344
-6535.357
-6535.357
-6535.3571
-6535.3571
-6535.3571
-6535.3571
-6535.357
-6535.357
-6535.37
-6535.37
-6535.37
-6535.37
-6535.37
-6535.37
-6535.37
-6535.37
-6535.3829
-6535.383
-6535.383
-6535.383
-6535.383
-6535.383
-6535.383
-6535.3829
-6535.3959
-6535.3959
-6535.396
-6535.396
-6535.396
-6535.396
-6535.3959
-6535.3959
-6535.4089
-6535.4089
-6535.409
-6535.409
-6535.409
-6535.4089
-6535.4089
-6535.4089
-6535.4219
-6535.4219
-6535.4219
-6535.4219
-6535.4219
-6535.4219
-6535.4219
-6535.4218
-6535.4348
-6535.4349
-6535.4349
-6535.4349
-6535.4349
-6535.4349
-6535.4349
-6535.4348
-6535.4478
-6535.4479
-6535.4479
-6535.4479
-6535.4479
-6535.4479
-6535.4479
-6535.4478
-6535.4608
-6535.4609
-6535.4609
-6535.4609
-6535.4609
-6535.4609
-6535.4608
-6535.4608
-6535.4738
-6535.4738
-6535.4739
-6535.4739
-6535.4739
-6535.4739
-6535.4738
-6535.4738
-6535.4868
-6535.4868
-6535.4869
-6535.4869
-6535.4869
-6535.4869
-6535.4868
-6535.4868
-6535.4998
-6535.4998
-6535.4999
-6535.4999
-6535.4999
-6535.4999
-6535.4998
-6535.4998
-6535.5128
-6535.5128
-6535.5129
-6535.5129
-6535.5129
-6535.5129
-6535.5128
-6535.5128
-6535.5258
-6535.5258
-6535.5259
-6535.5259
-6535.5259
-6535.5259
-6535.5258
-6535.5258
-6535.5388
-6535.5388
-6535.5389
-6535.5389
-6535.5389
-6535.5389
-6535.5388
-6535.5388
-6535.5518
-6535.5518
-6535.5519
-6535.5519
-6535.5519
-6535.5519
-6535.5518
-6535.5518
-6535.5648
-6535.5649
-6535.5649
-6535.5649
-6535.5649
-6535.5649
-6535.5648
-6535.5648
-6535.5778
-6535.5779
-6535.5779
-6535.5779
-6535.5779
-6535.5779
-6535.5778
-6535.5778
-6535.5908
-6535.5909
-6535.5909
-6535.5909
-6535.5909
-6535.5909
-6535.5909
-6535.5908
-6535.6039
-6535.6039
-6535.6039
-6535.6039
-6535.6039
-6535.6039
-6535.6039
-6535.6038
-6535.6169
-6535.6169
-6535.6169
-6535.6169
-6535.6169
-6535.6169
-6535.6169
-6535.6169
-6535.6299
-6535.6299
-6535.63
-6535.63
-6535.63
-6535.63
-6535.6299
-6535.6299
-6535.6429
-6535.6429
-6535.643
-6535.643
-6535.643
-6535.643
-6535.6429
-6535.6429
-6535.6559
-6535.656
-6535.656
-6535.656
-6535.656
-6535.656
-6535.656
-6535.6559
-6535.669
-6535.669
-6535.669
-6535.669
-6535.669
-6535.669
-6535.669
-6535.669
-6535.682
-6535.682
-6535.6821
-6535.6821
-6535.6821
-6535.6821
-6535.682
-6535.682
-6535.695
-6535.6951
-6535.6951
-6535.6951
-6535.6951
-6535.6951
-6535.6951
-6535.695
-6535.7081
-6535.7081
-6535.7081
-6535.7081
-6535.7081
-6535.7081
-6535.7081
-6535.708
-6535.7211
-6535.7211
-6535.7211
-6535.7212
-6535.7212
-6535.7211
-6535.7211
-6535.7211
-6535.7341
-6535.7342
-6535.7342
-6535.7342
-6535.7342
-6535.7342
-6535.7341
-6535.7341
-6535.7472
-6535.7472
-6535.7472
-6535.7472
-6535.7472
-6535.7472
-6535.7472
-6535.7472
-6535.7602
-6535.7602
-6535.7603
-6535.7603
-6535.7603
-6535.7603
-6535.7602
-6535.7602
-6535.7732
-6535.7733
-6535.7733
-6535.7733
-6535.7733
-6535.7733
-6535.7733
-6535.7732
-6535.7863
-6535.7863
-6535.7863
-6535.7863
-6535.7863
-6535.7863
-6535.7863
-6535.7863
-6535.7993
-6535.7994
-6535.7994
-6535.7994
-6535.7994
-6535.7994
-6535.7994
-6535.7993
-6535.8124
-6535.8124
-6535.8124
-6535.8124
-6535.8124
-6535.8124
-6535.8124
-6535.8124
-6535.8254
-6535.8254
-6535.8255
-6535.8255
-6535.8255
-6535.8255
-6535.8254
-6535.8254
-6535.8385
-6535.8385
-6535.8385
-6535.8385
-6535.8385
-6535.8385
-6535.8385
-6535.8385
-6535.8515
-6535.8515
-6535.8516
-6535.8516
-6535.8516
-6535.8516
-6535.8515
-6535.8515
-6535.8646
-6535.8646
-6535.8646
-6535.8646
-6535.8646
-6535.8646
-6535.8646
-6535.8646
-6535.8776
-6535.8776
-6535.8777
-6535.8777
-6535.8777
-6535.8777
-6535.8776
-6535.8776
-6535.8907
-6535.8907
-6535.8907
-6535.8907
-6535.8907
-6535.8907
-6535.8907
-6535.8907
-6535.9037
-6535.9038
-6535.9038
-6535.9038
-6535.9038
-6535.9038
-6535.9038
-6535.9037
-6535.9168
-6535.9168
-6535.9168
-6535.9168
-6535.9168
-6535.9168
-6535.9168
-6535.9168
-6535.9298
-6535.9299
-6535.9299
-6535.9299
-6535.9299
-6535.9299
-6535.9299
-6535.9298
-6535.9429
-6535.9429
-6535.9429
-6535.9429
-6535.9429
-6535.9429
-6535.9429
-6535.9429
-6535.956
-6535.956
-6535.956
-6535.956
-6535.956
-6535.956
-6535.956
-6535.956
-6535.969
-6535.969
-6535.9691
-6535.9691
-6535.9691
-6535.9691
-6535.969
-6535.969
-6535.9821
-6535.9821
-6535.9821
-6535.9821
-6535.9821
-6535.9821
-6535.9821
-6535.9821
-6535.9951
-6535.9952
-6535.9952
-6535.9952
-6535.9952
-6535.9952
-6535.9952
-6535.9951
-6536.0082
-6536.0082
-6536.0082
-6536.0082
-6536.0082
-6536.0082
-6536.0082
-6536.0082
-6536.0213
-6536.0213
-6536.0213
-6536.0213
-6536.0213
-6536.0213
-6536.0213
-6536.0213
-6536.0343
-6536.0343
-6536.0344
-6536.0344
-6536.0344
-6536.0344
-6536.0343
-6536.0343
-6536.0474
-6536.0474
-6536.0474
-6536.0474
-6536.0474
-6536.0474
-6536.0474
-6536.0474
-6536.0605
-6536.0605
-6536.0605
-6536.0605
-6536.0605
-6536.0605
-6536.0605
-6536.0605
-6536.0735
-6536.0735
-6536.0736
-6536.0736
-6536.0736
-6536.0736
-6536.0735
-6536.0735
-6536.0866
-6536.0866
-6536.0866
-6536.0866
-6536.0866
-6536.0866
-6536.0866
-6536.0866
-6536.0997
-6536.0997
-6536.0997
-6536.0997
-6536.0997
-6536.0997
-6536.0997
-6536.0997
-6536.1127
-6536.1127
-6536.1128
-6536.1128
-6536.1128
-6536.1127
-6536.1127
-6536.1127
-6536.1258
-6536.1258
-6536.1258
-6536.1258
-6536.1258
-6536.1258
-6536.1258
-6536.1258
-6536.1389
-6536.1389
-6536.1389
-6536.1389
-6536.1389
-6536.1389
-6536.1389
-6536.1389
-6536.1519
-6536.1519
-6536.152
-6536.152
-6536.152
-6536.152
-6536.1519
-6536.1519
-6536.165
-6536.165
-6536.165
-6536.165
-6536.165
-6536.165
-6536.165
-6536.165
-6536.1781
-6536.1781
-6536.1781
-6536.1781
-6536.1781
-6536.1781
-6536.1781
-6536.1781
-6536.1911
-6536.1912
-6536.1912
-6536.1912
-6536.1912
-6536.1912
-6536.1912
-6536.1911
-6536.2042
-6536.2042
-6536.2042
-6536.2042
-6536.2042
-6536.2042
-6536.2042
-6536.2042
-6536.2173
-6536.2173
-6536.2173
-6536.2173
-6536.2173
-6536.2173
-6536.2173
-6536.2173
-6536.2304
-6536.2304
-6536.2304
-6536.2304
-6536.2304
-6536.2304
-6536.2304
-6536.2304
-6536.2434
-6536.2434
-6536.2434
-6536.2435
-6536.2435
-6536.2434
-6536.2434
-6536.2434
-6536.2565
-6536.2565
-6536.2565
-6536.2565
-6536.2565
-6536.2565
-6536.2565
-6536.2565
-6536.2696
-6536.2696
-6536.2696
-6536.2696
-6536.2696
-6536.2696
-6536.2696
-6536.2696
-6536.2827
-6536.2827
-6536.2827
-6536.2827
-6536.2827
-6536.2827
-6536.2827
-6536.2827
-6536.2957
-6536.2957
-6536.2957
-6536.2957
-6536.2957
-6536.2957
-6536.2957
-6536.2957
-6536.3088
-6536.3088
-6536.3088
-6536.3088
-6536.3088
-6536.3088
-6536.3088
-6536.3088
-6536.3219
-6536.3219
-6536.3219
-6536.3219
-6536.3219
-6536.3219
-6536.3219
-6536.3219
-6536.335
-6536.335
-6536.335
-6536.335
-6536.335
-6536.335
-6536.335
-6536.3349
-6536.348
-6536.348
-6536.348
-6536.348
-6536.348
-6536.348
-6536.348
-6536.348
-6536.3611
-6536.3611
-6536.3611
-6536.3611
-6536.3611
-6536.3611
-6536.3611
-6536.3611
-6536.3742
-6536.3742
-6536.3742
-6536.3742
-6536.3742
-6536.3742
-6536.3742
-6536.3742
-6536.3872
-6536.3873
-6536.3873
-6536.3873
-6536.3873
-6536.3873
-6536.3872
-6536.3872
-6536.4003
-6536.4003
-6536.4003
-6536.4003
-6536.4003
-6536.4003
-6536.4003
-6536.4003
-6536.4134
-6536.4134
-6536.4134
-6536.4134
-6536.4134
-6536.4134
-6536.4134
-6536.4134
-6536.4265
-6536.4265
-6536.4265
-6536.4265
-6536.4265
-6536.4265
-6536.4265
-6536.4265
-6536.4396
-6536.4396
-6536.4396
-6536.4396
-6536.4396
-6536.4396
-6536.4395
-6536.4395
-6536.4526
-6536.4526
-6536.4526
-6536.4526
-6536.4526
-6536.4526
-6536.4526
-6536.4526
-6536.4657
-6536.4657
-6536.4657
-6536.4657
-6536.4657
-6536.4657
-6536.4657
-6536.4657
-6536.4788
-6536.4788
-6536.4788
-6536.4788
-6536.4788
-6536.4788
-6536.4788
-6536.4788
-6536.4919
-6536.4919
-6536.4919
-6536.4919
-6536.4919
-6536.4919
-6536.4919
-6536.4919
-6536.5049
-6536.5049
-6536.5049
-6536.5049
-6536.5049
-6536.5049
-6536.5049
-6536.5049
-6536.518
-6536.518
-6536.518
-6536.518
-6536.518
-6536.518
-6536.518
-6536.518
-6536.5311
-6536.5311
-6536.5311
-6536.5311
-6536.5311
-6536.5311
-6536.5311
-6536.5311
-6536.5442
-6536.5442
-6536.5442
-6536.5442
-6536.5442
-6536.5442
-6536.5442
-6536.5442
-6536.5572
-6536.5572
-6536.5572
-6536.5572
-6536.5572
-6536.5572
-6536.5572
-6536.5572
-6536.5703
-6536.5703
-6536.5703
-6536.5703
-6536.5703
-6536.5703
-6536.5703
-6536.5703
-6536.5834
-6536.5834
-6536.5834
-6536.5834
-6536.5834
-6536.5834
-6536.5834
-6536.5834
-6536.5965
-6536.5965
-6536.5965
-6536.5965
-6536.5965
-6536.5965
-6536.5965
-6536.5965
-6536.6095
-6536.6095
-6536.6095
-6536.6095
-6536.6095
-6536.6095
-6536.6095
-6536.6095
-6536.6226
-6536.6226
-6536.6226
-6536.6226
-6536.6226
-6536.6226
-6536.6226
-6536.6226
-6536.6357
-6536.6357
-6536.6357
-6536.6357
-6536.6357
-6536.6357
-6536.6357
-6536.6357
-6536.6488
-6536.6488
-6536.6488
-6536.6488
-6536.6488
-6536.6488
-6536.6488
-6536.6488
-6536.6618
-6536.6618
-6536.6618
-6536.6618
-6536.6618
-6536.6618
-6536.6618
-6536.6618
-6536.6749
-6536.6749
-6536.6749
-6536.6749
-6536.6749
-6536.6749
-6536.6749
-6536.6749
-6536.688
-6536.688
-6536.688
-6536.688
-6536.688
-6536.688
-6536.688
-6536.688
-6536.7011
-6536.7011
-6536.7011
-6536.7011
-6536.7011
-6536.7011
-6536.7011
-6536.7011
-6536.7141
-6536.7141
-6536.7141
-6536.7141
-6536.7141
-6536.7141
-6536.7141
-6536.7141
-6536.7272
-6536.7272
-6536.7272
-6536.7272
-6536.7272
-6536.7272
-6536.7272
-6536.7272
-6536.7403
-6536.7403
-6536.7403
-6536.7403
-6536.7403
-6536.7403
-6536.7403
-6536.7403
-6536.7534
-6536.7534
-6536.7534
-6536.7534
-6536.7534
-6536.7534
-6536.7534
-6536.7534
-6536.7664
-6536.7664
-6536.7664
-6536.7664
-6536.7664
-6536.7664
-6536.7664
-6536.7664
-6536.7795
-6536.7795
-6536.7795
-6536.7795
-6536.7795
-6536.7795
-6536.7795
-6536.7795
-6536.7926
-6536.7926
-6536.7926
-6536.7926
-6536.7926
-6536.7926
-6536.7926
-6536.7926
-6536.8057
-6536.8056
-6536.8056
-6536.8056
-6536.8056
-6536.8056
-6536.8056
-6536.8057
-6536.8187
-6536.8187
-6536.8187
-6536.8187
-6536.8187
-6536.8187
-6536.8187
-6536.8187
-6536.8318
-6536.8318
-6536.8318
-6536.8318
-6536.8318
-6536.8318
-6536.8318
-6536.8318
-6536.8449
-6536.8449
-6536.8449
-6536.8449
-6536.8449
-6536.8449
-6536.8449
-6536.8449
-6536.8579
-6536.8579
-6536.8579
-6536.8579
-6536.8579
-6536.8579
-6536.8579
-6536.8579
-6536.871
-6536.871
-6536.871
-6536.871
-6536.871
-6536.871
-6536.871
-6536.871
-6536.8841
-6536.8841
-6536.8841
-6536.8841
-6536.8841
-6536.8841
-6536.8841
-6536.8841
-6536.8972
-6536.8972
-6536.8972
-6536.8972
-6536.8972
-6536.8972
-6536.8972
-6536.8972
-6536.9102
-6536.9102
-6536.9102
-6536.9102
-6536.9102
-6536.9102
-6536.9102
-6536.9102
-6536.9233
-6536.9233
-6536.9233
-6536.9233
-6536.9233
-6536.9233
-6536.9233
-6536.9233
-6536.9364
-6536.9364
-6536.9364
-6536.9364
-6536.9364
-6536.9364
-6536.9364
-6536.9364
-6536.9494
-6536.9494
-6536.9494
-6536.9494
-6536.9494
-6536.9494
-6536.9494
-6536.9494
-6536.9625
-6536.9625
-6536.9625
-6536.9625
-6536.9625
-6536.9625
-6536.9625
-6536.9625
-6536.9756
-6536.9756
-6536.9756
-6536.9756
-6536.9756
-6536.9756
-6536.9756
-6536.9756
-6536.9886
-6536.9886
-6536.9886
-6536.9886
-6536.9886
-6536.9886
-6536.9886
-6536.9886
-6537.0017
-6537.0017
-6537.0017
-6537.0017
-6537.0017
-6537.0017
-6537.0017
-6537.0017
-6537.0148
-6537.0148
-6537.0148
-6537.0148
-6537.0148
-6537.0148
-6537.0148
-6537.0148
-6537.0278
-6537.0278
-6537.0278
-6537.0278
-6537.0278
-6537.0278
-6537.0278
-6537.0278
-6537.0409
-6537.0409
-6537.0409
-6537.0409
-6537.0409
-6537.0409
-6537.0409
-6537.0409
-6537.054
-6537.054
-6537.054
-6537.054
-6537.054
-6537.054
-6537.054
-6537.054
-6537.067
-6537.067
-6537.067
-6537.067
-6537.067
-6537.067
-6537.067
-6537.067
-6537.0801
-6537.0801
-6537.0801
-6537.0801
-6537.0801
-6537.0801
-6537.0801
-6537.0801
-6537.0932
-6537.0932
-6537.0932
-6537.0932
-6537.0932
-6537.0932
-6537.0932
-6537.0932
-6537.1062
-6537.1062
-6537.1062
-6537.1062
-6537.1062
-6537.1062
-6537.1062
-6537.1062
-6537.1193
-6537.1193
-6537.1193
-6537.1193
-6537.1193
-6537.1193
-6537.1193
-6537.1193
-6537.1324
-6537.1324
-6537.1324
-6537.1324
-6537.1324
-6537.1324
-6537.1324
-6537.1324
-6537.1454
-6537.1454
-6537.1454
-6537.1454
-6537.1454
-6537.1454
-6537.1454
-6537.1454
-6537.1585
-6537.1585
-6537.1585
-6537.1585
-6537.1585
-6537.1585
-6537.1585
-6537.1585
-6537.1716
-6537.1716
-6537.1716
-6537.1715
-6537.1715
-6537.1716
-6537.1716
-6537.1716
-6537.1846
-6537.1846
-6537.1846
-6537.1846
-6537.1846
-6537.1846
-6537.1846
-6537.1846
-6537.1977
-6537.1977
-6537.1977
-6537.1977
-6537.1977
-6537.1977
-6537.1977
-6537.1977
-6537.2107
-6537.2107
-6537.2107
-6537.2107
-6537.2107
-6537.2107
-6537.2107
-6537.2107
-6537.2238
-6537.2238
-6537.2238
-6537.2238
-6537.2238
-6537.2238
-6537.2238
-6537.2238
-6537.2369
-6537.2369
-6537.2369
-6537.2369
-6537.2369
-6537.2369
-6537.2369
-6537.2369
-6537.2499
-6537.2499
-6537.2499
-6537.2499
-6537.2499
-6537.2499
-6537.2499
-6537.2499
-6537.263
-6537.263
-6537.263
-6537.263
-6537.263
-6537.263
-6537.263
-6537.263
-6537.276
-6537.276
-6537.276
-6537.276
-6537.276
-6537.276
-6537.276
-6537.276
-6537.2891
-6537.2891
-6537.2891
-6537.2891
-6537.2891
-6537.2891
-6537.2891
-6537.2891
-6537.3022
-6537.3021
-6537.3021
-6537.3021
-6537.3021
-6537.3021
-6537.3021
-6537.3022
-6537.3152
-6537.3152
-6537.3152
-6537.3152
-6537.3152
-6537.3152
-6537.3152
-6537.3152
-6537.3283
-6537.3283
-6537.3283
-6537.3282
-6537.3282
-6537.3283
-6537.3283
-6537.3283
-6537.3413
-6537.3413
-6537.3413
-6537.3413
-6537.3413
-6537.3413
-6537.3413
-6537.3413
-6537.3544
-6537.3544
-6537.3544
-6537.3544
-6537.3544
-6537.3544
-6537.3544
-6537.3544
-6537.3674
-6537.3674
-6537.3674
-6537.3674
-6537.3674
-6537.3674
-6537.3674
-6537.3674
-6537.3805
-6537.3805
-6537.3805
-6537.3805
-6537.3805
-6537.3805
-6537.3805
-6537.3805
-6537.3935
-6537.3935
-6537.3935
-6537.3935
-6537.3935
-6537.3935
-6537.3935
-6537.3935
-6537.4066
-6537.4066
-6537.4066
-6537.4066
-6537.4066
-6537.4066
-6537.4066
-6537.4066
-6537.4196
-6537.4196
-6537.4196
-6537.4196
-6537.4196
-6537.4196
-6537.4196
-6537.4196
-6537.4327
-6537.4327
-6537.4327
-6537.4327
-6537.4327
-6537.4327
-6537.4327
-6537.4327
-6537.4457
-6537.4457
-6537.4457
-6537.4457
-6537.4457
-6537.4457
-6537.4457
-6537.4457
-6537.4588
-6537.4588
-6537.4588
-6537.4588
-6537.4588
-6537.4588
-6537.4588
-6537.4588
-6537.4718
-6537.4718
-6537.4718
-6537.4718
-6537.4718
-6537.4718
-6537.4718
-6537.4718
-6537.4849
-6537.4849
-6537.4849
-6537.4849
-6537.4849
-6537.4849
-6537.4849
-6537.4849
-6537.4979
-6537.4979
-6537.4979
-6537.4979
-6537.4979
-6537.4979
-6537.4979
-6537.4979
-6537.511
-6537.511
-6537.511
-6537.5109
-6537.5109
-6537.511
-6537.511
-6537.511
-6537.524
-6537.524
-6537.524
-6537.524
-6537.524
-6537.524
-6537.524
-6537.524
-6537.5371
-6537.537
-6537.537
-6537.537
-6537.537
-6537.537
-6537.537
-6537.5371
-6537.5501
-6537.5501
-6537.5501
-6537.5501
-6537.5501
-6537.5501
-6537.5501
-6537.5501
-6537.5631
-6537.5631
-6537.5631
-6537.5631
-6537.5631
-6537.5631
-6537.5631
-6537.5631
-6537.5762
-6537.5762
-6537.5762
-6537.5762
-6537.5762
-6537.5762
-6537.5762
-6537.5762
-6537.5892
-6537.5892
-6537.5892
-6537.5892
-6537.5892
-6537.5892
-6537.5892
-6537.5892
-6537.6023
-6537.6023
-6537.6022
-6537.6022
-6537.6022
-6537.6022
-6537.6023
-6537.6023
-6537.6153
-6537.6153
-6537.6153
-6537.6153
-6537.6153
-6537.6153
-6537.6153
-6537.6153
-6537.6283
-6537.6283
-6537.6283
-6537.6283
-6537.6283
-6537.6283
-6537.6283
-6537.6283
-6537.6414
-6537.6414
-6537.6414
-6537.6413
-6537.6413
-6537.6414
-6537.6414
-6537.6414
-6537.6544
-6537.6544
-6537.6544
-6537.6544
-6537.6544
-6537.6544
-6537.6544
-6537.6544
-6537.6674
-6537.6674
-6537.6674
-6537.6674
-6537.6674
-6537.6674
-6537.6674
-6537.6675
-6537.6805
-6537.6805
-6537.6804
-6537.6804
-6537.6804
-6537.6804
-6537.6805
-6537.6805
-6537.6935
-6537.6935
-6537.6935
-6537.6935
-6537.6935
-6537.6935
-6537.6935
-6537.6935
-6537.7065
-6537.7065
-6537.7065
-6537.7065
-6537.7065
-6537.7065
-6537.7065
-6537.7065
-6537.7196
-6537.7195
-6537.7195
-6537.7195
-6537.7195
-6537.7195
-6537.7195
-6537.7196
-6537.7326
-6537.7326
-6537.7325
-6537.7325
-6537.7325
-6537.7326
-6537.7326
-6537.7326
-6537.7456
-6537.7456
-6537.7456
-6537.7456
-6537.7456
-6537.7456
-6537.7456
-6537.7456
-6537.7586
-6537.7586
-6537.7586
-6537.7586
-6537.7586
-6537.7586
-6537.7586
-6537.7586
-6537.7717
-6537.7716
-6537.7716
-6537.7716
-6537.7716
-6537.7716
-6537.7716
-6537.7717
-6537.7847
-6537.7847
-6537.7846
-6537.7846
-6537.7846
-6537.7846
-6537.7847
-6537.7847
-6537.7977
-6537.7977
-6537.7976
-6537.7976
-6537.7976
-6537.7976
-6537.7977
-6537.7977
-6537.8107
-6537.8107
-6537.8106
-6537.8106
-6537.8106
-6537.8106
-6537.8107
-6537.8107
-6537.8238
-6537.8237
-6537.8237
-6537.8236
-6537.8236
-6537.8237
-6537.8237
-6537.8238
-6537.8368
-6537.8367
-6537.8367
-6537.8366
-6537.8366
-6537.8367
-6537.8367
-6537.8368
-6537.8499
-6537.8498
-6537.8497
-6537.8496
-6537.8496
-6537.8497
-6537.8498
-6537.8499
-6537.8629
-6537.8628
-6537.8626
-6537.8625
-6537.8625
-6537.8626
-6537.8628
-6537.863
-6537.8761
-6537.8758
-6537.8756
-6537.8755
-6537.8755
-6537.8756
-6537.8758
-6537.8761
-6537.8892
-6537.8889
-6537.8886
-6537.8884
-6537.8884
-6537.8886
-6537.8889
-6537.8892
-6537.9024
-6537.9019
-6537.9015
-6537.9013
-6537.9013
-6537.9015
-6537.9019
-6537.9024
-6537.9156
-6537.915
-6537.9144
-6537.9141
-6537.9141
-6537.9144
-6537.9149
-6537.9156
-6537.9289
-6537.928
-6537.9272
-6537.9269
-6537.9269
-6537.9272
-6537.9279
-6537.9289
-6537.9422
-6537.941
-6537.94
-6537.9395
-6537.9395
-6537.94
-6537.9409
-6537.9421
-6537.9555
-6537.9539
-6537.9526
-6537.9521
-6537.9521
-6537.9526
-6537.9538
-6537.9554
-6537.9688
-6537.9667
-6537.9651
-6537.9645
-6537.9645
-6537.9651
-6537.9666
-6537.9687
-6537.982
-6537.9794
-6537.9775
-6537.9767
-6537.9767
-6537.9774
-6537.9793
-6537.9819
-6537.995
-6537.9918
-6537.9896
-6537.9888
-6537.9887
-6537.9895
-6537.9917
-6537.9948
-6538.0076
-6538.004
-6538.0014
-6538.0006
-6538.0005
-6538.0013
-6538.0038
-6538.0075
-6538.0199
-6538.0157
-6538.0129
-6538.0121
-6538.0121
-6538.0128
-6538.0155
-6538.0197
-6538.0314
-6538.0268
-6538.024
-6538.0234
-6538.0233
-6538.0239
-6538.0267
-6538.0312
-6538.0421
-6538.0373
-6538.0347
-6538.0345
-6538.0345
-6538.0346
-6538.0371
-6538.0419
-6538.0518
-6538.0469
-6538.0449
-6538.0454
-6538.0454
-6538.0448
-6538.0467
-6538.0516
-6538.0607
-6538.0561
-6538.0545
-6538.0553
-6538.0553
-6538.0543
-6538.0559
-6538.0605
-6538.0682
-6538.0659
-6538.0638
-6538.0628
-6538.0628
-6538.0637
-6538.0657
-6538.0681
)
;

boundaryField
{
    left
    {
        type            zeroGradient;
    }
    right
    {
        type            WKBC;
        index           0;
        value           uniform -6538.0692;
    }
    walls
    {
        type            zeroGradient;
    }
    frontAndBack
    {
        type            empty;
    }
}


// ************************************************************************* //
