/*--------------------------------*- C++ -*----------------------------------*\
| =========                 |                                                 |
| \\      /  F ield         | OpenFOAM: The Open Source CFD Toolbox           |
|  \\    /   O peration     | Version:  5.x                                   |
|   \\  /    A nd           | Web:      www.OpenFOAM.org                      |
|    \\/     M anipulation  |                                                 |
\*---------------------------------------------------------------------------*/
FoamFile
{
    version     2.0;
    format      ascii;
    class       surfaceScalarField;
    location    "6";
    object      phi;
}
// * * * * * * * * * * * * * * * * * * * * * * * * * * * * * * * * * * * * * //

dimensions      [0 3 -1 0 0 0 0];

internalField   nonuniform List<scalar> 
3592
(
-7.6350095e-10
7.6350094e-10
-1.8241288e-09
1.0606333e-09
-1.6162501e-09
-2.0787322e-10
1.0336233e-12
-1.6172788e-09
1.6172855e-09
-1.616247e-09
1.8251682e-09
-2.0787767e-10
7.6350504e-10
1.0616685e-09
7.6351038e-10
-1.3573939e-09
2.1209009e-09
-3.7801742e-09
3.4834253e-09
-3.4745735e-09
-5.1346246e-10
1.6962161e-12
-5.0935375e-09
3.4788898e-09
-5.0934295e-09
3.7817323e-09
-5.1070874e-10
1.3582611e-09
3.4851511e-09
2.1217778e-09
-2.1722081e-09
4.2931162e-09
-5.3390958e-09
6.6503246e-09
-4.7739362e-09
-1.0786109e-09
3.2597004e-12
-9.8707226e-09
4.7783335e-09
-9.8684922e-09
5.3426132e-09
-1.074977e-09
2.1730233e-09
6.6547522e-09
4.2948066e-09
-2.7956527e-09
7.0887755e-09
-6.3987725e-09
1.0253456e-08
-5.6238221e-09
-1.8535504e-09
2.9723328e-12
-1.5497506e-08
5.6299949e-09
-1.5495504e-08
6.4019174e-09
-1.8468885e-09
2.7969206e-09
1.025976e-08
7.0917328e-09
-3.1042133e-09
1.0192995e-08
-6.9931914e-09
1.4142444e-08
-6.0628168e-09
-2.7839149e-09
3.3655518e-12
-2.1563679e-08
6.0678763e-09
-2.1560005e-08
6.9968916e-09
-2.7758933e-09
3.1053509e-09
1.4151311e-08
1.0197089e-08
-3.2244957e-09
1.3417497e-08
-7.11879e-09
1.803675e-08
-6.1658913e-09
-3.7368027e-09
2.4543607e-12
-2.7732014e-08
6.1706785e-09
-2.7728218e-08
7.1215384e-09
-3.7267423e-09
3.2255114e-09
1.8047349e-08
1.3422606e-08
-3.1045379e-09
1.6522041e-08
-6.9092249e-09
2.1841447e-08
-5.9548391e-09
-4.6911785e-09
1.8335221e-12
-3.3688677e-08
5.9578475e-09
-3.3684223e-08
6.9112564e-09
-4.6801409e-09
3.1052892e-09
2.1853326e-08
1.65279e-08
-2.8937851e-09
1.9415832e-08
-6.3881756e-09
2.5335849e-08
-5.5279637e-09
-5.5513795e-09
8.1729242e-13
-3.9217448e-08
5.5293183e-09
-3.9212713e-08
6.3891681e-09
-5.5399797e-09
2.8940738e-09
2.5348431e-08
1.942198e-08
-2.5459089e-09
2.1961747e-08
-5.707174e-09
2.8497124e-08
-4.9331326e-09
-6.325411e-09
-3.0119886e-13
-4.4150269e-08
4.9329585e-09
-4.4145963e-08
5.70684e-09
-6.3138511e-09
2.5459473e-09
2.8509333e-08
2.1967932e-08
-2.1888904e-09
2.4150644e-08
-4.8978639e-09
3.1206109e-08
-4.2639163e-09
-6.9593476e-09
-1.0039879e-12
-4.8413171e-08
4.2616693e-09
-4.8408626e-08
4.8968788e-09
-6.9490495e-09
2.1884332e-09
3.121779e-08
2.4156371e-08
-1.7869671e-09
2.5937616e-08
-4.0760649e-09
3.3495217e-08
-3.5551458e-09
-7.4802569e-09
-2.1148303e-12
-5.1966193e-08
3.5521265e-09
-5.1962858e-08
4.0737571e-09
-7.4706703e-09
1.7863779e-09
3.3505179e-08
2.5942754e-08
-1.4248381e-09
2.7362461e-08
-3.2640085e-09
3.5334399e-08
-2.8729714e-09
-7.8712828e-09
-2.3670459e-12
-5.4836786e-08
2.8681791e-09
-5.4833393e-08
3.2615667e-09
-7.8640467e-09
1.423884e-09
3.5342872e-08
2.7366643e-08
-1.0787278e-09
2.8441194e-08
-2.5298743e-09
3.6785556e-08
-2.2387818e-09
-8.1623659e-09
-3.2119859e-12
-5.7072347e-08
2.2339348e-09
-5.7070531e-08
2.5264181e-09
-8.1565204e-09
1.0777654e-09
3.6791534e-08
2.8444413e-08
-7.9044396e-10
2.9231645e-08
-1.8819932e-09
3.7877116e-08
-1.6858517e-09
-8.3584961e-09
-3.1537798e-12
-5.8755034e-08
1.6797372e-09
-5.8753411e-08
1.8787384e-09
-8.3555105e-09
7.8925954e-10
3.7881024e-08
2.9233679e-08
-5.4690616e-10
2.9778557e-08
-1.3449526e-09
3.8675173e-08
-1.2189644e-09
-8.484475e-09
-3.7317494e-12
-5.9970258e-08
1.213131e-09
-5.9970265e-08
1.3409908e-09
-8.4833609e-09
5.457701e-10
3.8676254e-08
2.9779453e-08
-3.5732281e-10
3.0135886e-08
-9.1413611e-10
3.9231998e-08
-8.4428053e-10
-8.5543194e-09
-3.592313e-12
-6.0810936e-08
8.3757237e-10
-6.0811419e-08
9.1044033e-10
-8.5562177e-09
3.5604451e-10
3.923066e-08
3.0135504e-08
-2.1545306e-10
3.0351344e-08
-5.8483624e-10
3.9601391e-08
-5.5470908e-10
-8.5844374e-09
-3.9887761e-12
-6.1361647e-08
5.4826652e-10
-6.1363665e-08
5.8063498e-10
-8.588577e-09
2.1421722e-10
3.9597087e-08
3.0349725e-08
-1.123795e-10
3.0463731e-08
-3.4553679e-10
3.9834559e-08
-3.408983e-10
-8.5890646e-09
-3.8760419e-12
-6.1698659e-08
3.3386194e-10
-6.1701392e-08
3.4152085e-10
-8.5962248e-09
1.1103291e-10
3.9827586e-08
3.0460764e-08
-4.6500301e-11
3.0510236e-08
-1.7854853e-10
3.9966617e-08
-1.9114264e-10
-8.5764616e-09
-4.129384e-12
-6.1885663e-08
1.84289e-10
-6.1889802e-08
1.7420018e-10
-8.586127e-09
4.5183697e-11
3.9956611e-08
3.0505952e-08
-2.4208995e-12
3.0512664e-08
-7.2035729e-11
4.0036243e-08
-9.1193742e-11
-8.5572923e-09
-4.0299165e-12
-6.1972816e-08
8.403541e-11
-6.1977857e-08
6.7829451e-11
-8.5699099e-09
1.0267724e-12
4.0023424e-08
3.0506984e-08
1.7949751e-11
3.0494719e-08
-6.8842514e-12
4.0061087e-08
-3.0385621e-11
-8.5337822e-09
-4.0838581e-12
-6.199911e-08
2.3470436e-11
-6.2005402e-08
2.5635705e-12
-8.5489943e-09
-1.9289782e-11
4.0045286e-08
3.0487699e-08
2.990861e-11
3.0464817e-08
2.4965485e-11
4.0066041e-08
3.9462556e-12
-8.5127517e-09
-3.891348e-12
-6.1991261e-08
-1.0765466e-11
-6.1998518e-08
-2.9053871e-11
-8.5306947e-09
-3.126238e-11
4.0047506e-08
3.0456442e-08
2.8806322e-11
3.0436016e-08
3.8679786e-11
4.0056177e-08
1.8740642e-11
-8.4928041e-09
-3.6978978e-12
-6.1968815e-08
-2.5076028e-11
-6.1977131e-08
-4.2603163e-11
-8.5131591e-09
-3.0039123e-11
4.003495e-08
3.0426407e-08
2.7534622e-11
3.0408488e-08
3.750688e-11
4.0046216e-08
2.287032e-11
-8.4781562e-09
-3.3261054e-12
-6.1942607e-08
-2.8653645e-11
-6.1951793e-08
-4.1013031e-11
-8.5007885e-09
-2.8697185e-11
4.0022645e-08
3.0397716e-08
1.9501244e-11
3.0388991e-08
3.1843549e-11
4.0033883e-08
1.9398214e-11
-8.4657026e-09
-2.8811683e-12
-6.192032e-08
-2.4375408e-11
-6.1930291e-08
-3.4903874e-11
-8.4902517e-09
-2.0460585e-11
4.000821e-08
3.037726e-08
1.5261367e-11
3.0373737e-08
2.1043846e-11
4.0028112e-08
1.3746108e-11
-8.4583935e-09
-2.3435091e-12
-6.190422e-08
-1.7784979e-11
-6.1914838e-08
-2.3499848e-11
-8.4845256e-09
-1.6076214e-11
4.0000797e-08
3.0361189e-08
7.0672111e-12
3.0366674e-08
1.2000728e-11
4.0023187e-08
6.193196e-12
-8.4525779e-09
-1.7238679e-12
-6.1896295e-08
-9.1901561e-12
-6.1907364e-08
-1.3817466e-11
-8.4798902e-09
-7.6177876e-12
3.9994606e-08
3.0353575e-08
3.9864864e-12
3.0362694e-08
1.6879245e-12
4.0025497e-08
-4.6636662e-14
-8.450832e-09
-1.0972711e-12
-6.1895233e-08
-1.8049992e-12
-6.1906646e-08
-2.8025996e-12
-8.4788814e-09
-4.3559074e-12
3.9996169e-08
3.0349225e-08
-2.2697522e-12
3.0364969e-08
-4.9235215e-12
4.002816e-08
-6.2498363e-12
-8.4494978e-09
-4.203229e-13
-6.1901055e-08
5.4987068e-12
-6.1912557e-08
4.5084872e-12
-8.4778833e-09
2.1834927e-12
3.9998502e-08
3.0351412e-08
-3.3344776e-12
3.036831e-08
-1.198458e-11
4.0036821e-08
-1.0279976e-11
-8.451191e-09
1.84204e-13
-6.1911509e-08
1.0666118e-11
-6.1923028e-08
1.2246702e-11
-8.4794526e-09
3.4200493e-12
4.000734e-08
3.0354838e-08
-7.6652485e-12
3.037598e-08
-1.5306645e-11
4.0044471e-08
-1.4080188e-11
-8.4524098e-09
8.0123844e-13
-6.1926383e-08
1.5436942e-11
-6.1937656e-08
1.6199029e-11
-8.480207e-09
8.0099126e-12
4.0015537e-08
3.0362852e-08
-7.1203443e-12
3.0383107e-08
-1.9411989e-11
4.0056774e-08
-1.588481e-11
-8.4559256e-09
1.2876383e-12
-6.1943544e-08
1.8191732e-11
-6.195455e-08
2.0851394e-11
-8.4828554e-09
7.5901279e-12
4.0028809e-08
3.0370448e-08
-1.0152089e-11
3.0393263e-08
-2.0295033e-11
4.0066925e-08
-1.7822196e-11
-8.458391e-09
1.7623867e-12
-6.1963122e-08
2.0835121e-11
-6.1973615e-08
2.2205692e-11
-8.4842185e-09
1.0827367e-11
4.0040195e-08
3.0381279e-08
-8.6351232e-12
3.0401905e-08
-2.2505615e-11
4.0080807e-08
-1.8167483e-11
-8.4627177e-09
2.0753494e-12
-6.1983354e-08
2.1840822e-11
-6.199337e-08
2.4773784e-11
-8.4871402e-09
9.3688785e-12
4.005561e-08
3.0390653e-08
-1.0960906e-11
3.041287e-08
-2.1993036e-11
4.0091847e-08
-1.9036759e-11
-8.4656668e-09
2.3725064e-12
-6.2004756e-08
2.3095571e-11
-6.2014086e-08
2.4536721e-11
-8.488574e-09
1.1835212e-11
4.0068319e-08
3.0402492e-08
-8.9649875e-12
3.0421842e-08
-2.3226179e-11
4.010612e-08
-1.8640436e-11
-8.4702411e-09
2.5010354e-12
-6.2025886e-08
2.3047579e-11
-6.2034621e-08
2.5927921e-11
-8.4914432e-09
9.8288865e-12
4.0084429e-08
3.0412327e-08
-1.0973328e-11
3.0432819e-08
-2.2066612e-11
4.0117221e-08
-1.9031807e-11
-8.4732689e-09
2.6263835e-12
-6.2047538e-08
2.3518102e-11
-6.2055506e-08
2.4856997e-11
-8.4927749e-09
1.1916975e-11
4.0097376e-08
3.0424247e-08
-8.7908796e-12
3.0441617e-08
-2.2894876e-11
4.0131336e-08
-1.8351462e-11
-8.4778009e-09
2.593137e-12
-6.2068472e-08
2.2911727e-11
-6.2075814e-08
2.567069e-11
-8.4955227e-09
9.6656102e-12
4.0113392e-08
3.0433918e-08
-1.0687344e-11
3.0452308e-08
-2.1508736e-11
4.0142165e-08
-1.8595682e-11
-8.4807072e-09
2.5791488e-12
-6.208964e-08
2.2988285e-11
-6.2096217e-08
2.4223906e-11
-8.4967514e-09
1.1594572e-11
4.0126028e-08
3.0445517e-08
-8.4614652e-12
3.0460776e-08
-2.2221359e-11
4.0155937e-08
-1.7859665e-11
-8.4850574e-09
2.4251419e-12
-6.2109914e-08
2.2122081e-11
-6.2115903e-08
2.4795403e-11
-8.4994135e-09
9.2578339e-12
4.0141576e-08
3.045478e-08
-1.0335062e-11
3.0471115e-08
-2.080096e-11
4.016641e-08
-1.8100889e-11
-8.4877509e-09
2.3156918e-12
-6.2130324e-08
2.2027181e-11
-6.2135608e-08
2.3214132e-11
-8.5005938e-09
1.1133594e-11
4.0153664e-08
3.0465917e-08
-8.1221956e-12
3.0479244e-08
-2.1514015e-11
4.0179813e-08
-1.7393848e-11
-8.4918597e-09
2.0865229e-12
-6.2149793e-08
2.1064175e-11
-6.2154574e-08
2.37096e-11
-8.503228e-09
8.7853495e-12
4.0168598e-08
3.0474708e-08
-1.0001163e-11
3.0489249e-08
-2.0125293e-11
4.0189945e-08
-1.7672226e-11
-8.4943063e-09
1.9250928e-12
-6.2169385e-08
2.0914812e-11
-6.2173558e-08
2.2107409e-11
-8.5044141e-09
1.0652064e-11
4.018006e-08
3.0485363e-08
-7.8158218e-12
3.0497072e-08
-2.0867869e-11
4.0203008e-08
-1.7006722e-11
-8.4981561e-09
1.6617092e-12
-6.2188042e-08
1.9937874e-11
-6.2191823e-08
2.260008e-11
-8.5070651e-09
8.3217776e-12
4.0194349e-08
3.0493691e-08
-9.7021307e-12
3.0506778e-08
-1.9518886e-11
4.0212832e-08
-1.7316181e-11
-8.5003526e-09
1.4844872e-12
-6.2206837e-08
1.9791517e-11
-6.2210124e-08
2.1023934e-11
-8.5082912e-09
1.0194008e-11
4.0205186e-08
3.0503888e-08
-7.54231e-12
3.0514327e-08
-2.0284741e-11
4.0225585e-08
-1.6677055e-11
-8.5039489e-09
1.2185831e-12
-6.2224722e-08
1.8839709e-11
-6.2227735e-08
2.1541054e-11
-8.5109814e-09
7.8907133e-12
4.0218846e-08
3.0511784e-08
-9.4294282e-12
3.052376e-08
-1.8963265e-11
4.0235126e-08
-1.6997554e-11
-8.5059087e-09
1.0517359e-12
-6.2242765e-08
1.872203e-11
-6.2245399e-08
2.0006267e-11
-8.5122596e-09
9.7704841e-12
4.0229089e-08
3.0521558e-08
-7.2888111e-12
3.0531055e-08
-1.9736775e-11
4.0247585e-08
-1.6364517e-11
-8.5092695e-09
8.0467327e-13
-6.2259923e-08
1.7811358e-11
-6.2262395e-08
2.0554206e-11
-8.5149912e-09
7.4948758e-12
4.0242158e-08
3.0529058e-08
-9.1694166e-12
3.0540228e-08
-1.842767e-11
4.025685e-08
-1.6676877e-11
-8.5110146e-09
6.6445593e-13
-6.2277259e-08
1.7731449e-11
-6.2279456e-08
1.9062267e-11
-8.5163162e-09
9.3797014e-12
4.0251847e-08
3.0538441e-08
-7.0422473e-12
3.0547277e-08
-1.9194664e-11
4.0269014e-08
-1.6033751e-11
-8.5141641e-09
4.4831782e-13
-6.229373e-08
1.686598e-11
-6.2295863e-08
1.9638764e-11
-8.5190779e-09
7.1296175e-12
4.0264367e-08
3.0545576e-08
-8.9108472e-12
3.0556191e-08
-1.7886316e-11
4.0277996e-08
-1.6324745e-11
-8.5157202e-09
3.4270543e-13
-6.2310393e-08
1.6824415e-11
-6.2312339e-08
1.8185754e-11
-8.5204335e-09
9.0159059e-12
4.0273542e-08
3.0554595e-08
-6.7932967e-12
3.0562991e-08
-1.8637324e-11
4.0289851e-08
-1.5661813e-11
-8.5186844e-09
1.623164e-13
-6.2326206e-08
1.6002168e-11
-6.2328168e-08
1.8785537e-11
-8.5232058e-09
6.7885791e-12
4.028555e-08
3.0561389e-08
-8.6466237e-12
3.0571641e-08
-1.7322933e-11
4.0298533e-08
-1.5924632e-11
-8.5200773e-09
9.3172674e-14
-6.2342219e-08
1.5995329e-11
-6.2344065e-08
1.7365909e-11
-8.5245709e-09
8.672927e-12
4.0294248e-08
3.0570064e-08
-6.5367394e-12
3.0578184e-08
-1.8053183e-11
4.0310061e-08
-1.5238004e-11
-8.5228812e-09
-5.1696624e-14
-6.2357394e-08
1.5211486e-11
-6.2359318e-08
1.7983164e-11
-8.5273315e-09
6.4658074e-12
4.0305776e-08
3.0576536e-08
-8.3733645e-12
3.058656e-08
-1.6730075e-11
4.0318424e-08
-1.5470974e-11
-8.5241352e-09
-8.6515418e-14
-6.2372774e-08
1.523397e-11
-6.2374633e-08
1.6591383e-11
-8.5286837e-09
8.3454165e-12
4.0314028e-08
3.0584884e-08
-6.2705903e-12
3.0592838e-08
-1.7438417e-11
4.0329603e-08
-1.4761017e-11
-8.5268013e-09
-1.9919439e-13
-6.2387325e-08
1.4482702e-11
-6.2389305e-08
1.7220811e-11
-8.5314108e-09
6.156417e-12
4.0325102e-08
3.0591046e-08
-8.0903783e-12
3.0600931e-08
-1.6106836e-11
4.0337625e-08
-1.4965939e-11
-8.5279373e-09
-2.0409408e-13
-6.2402082e-08
1.4528711e-11
-6.2404033e-08
1.5852034e-11
-8.5327291e-09
8.0291751e-12
4.0332931e-08
3.0599077e-08
-5.9950488e-12
3.0606932e-08
-1.6794529e-11
4.0348435e-08
-1.4235687e-11
-8.530485e-09
-2.8948635e-13
-6.2416017e-08
1.3804225e-11
-6.2418116e-08
1.6489269e-11
-8.5354032e-09
5.8567005e-12
4.0343573e-08
3.0604939e-08
-7.7986825e-12
3.0614734e-08
-1.5456521e-11
4.0356099e-08
-1.4416388e-11
-8.5315204e-09
-2.69841e-13
-6.2430159e-08
1.3868354e-11
-6.2432249e-08
1.5139597e-11
-8.5366696e-09
7.7211414e-12
4.0350997e-08
3.0612663e-08
-5.7116222e-12
3.0620452e-08
-1.6126229e-11
4.0366524e-08
-1.3670274e-11
-8.5339652e-09
-3.3334875e-13
-6.2443485e-08
1.3165475e-11
-6.2445737e-08
1.5781319e-11
-8.5392745e-09
5.5640411e-12
4.0361224e-08
3.0618233e-08
-7.5002503e-12
3.0627955e-08
-1.478478e-11
4.0373814e-08
-1.3831523e-11
-8.534914e-09
-2.9463194e-13
-6.2457018e-08
1.3243124e-11
-6.2459271e-08
1.4447826e-11
-8.5404746e-09
7.4192638e-12
4.0368258e-08
3.0625654e-08
-5.4224925e-12
3.0633384e-08
-1.5439852e-11
4.0383842e-08
-1.3074478e-11
-8.5372682e-09
-3.4147199e-13
-6.246974e-08
1.2557572e-11
-6.2472159e-08
1.5091732e-11
-8.5429979e-09
5.2767591e-12
4.0378083e-08
3.0630936e-08
-7.1974901e-12
3.0640584e-08
-1.4098298e-11
4.0390748e-08
-1.3221257e-11
-8.538141e-09
-2.8873688e-13
-6.2482669e-08
1.2645105e-11
-6.2485089e-08
1.3772395e-11
-8.5441208e-09
7.1223348e-12
4.0384738e-08
3.0638061e-08
-5.1300977e-12
3.0645721e-08
-1.474228e-11
4.0400371e-08
-1.2458143e-11
-8.5404141e-09
-3.2355984e-13
-6.2494793e-08
1.1973561e-11
-6.2497375e-08
1.4417077e-11
-8.5465535e-09
4.99394e-12
4.0394171e-08
3.064306e-08
-6.8929139e-12
3.0652616e-08
-1.3403931e-11
4.0406887e-08
-1.2595204e-11
-8.5412188e-09
-2.611768e-13
-6.2507123e-08
1.2068304e-11
-6.2509701e-08
1.3110638e-11
-8.5475916e-09
6.8298177e-12
4.0400456e-08
3.0649892e-08
-4.8368722e-12
3.0657459e-08
-1.4040274e-11
4.0416102e-08
-1.1830481e-11
-8.5434175e-09
-2.8790125e-13
-6.2518655e-08
1.1408358e-11
-6.2521387e-08
1.3755433e-11
-8.5499279e-09
4.7152631e-12
4.0409506e-08
3.0654613e-08
-6.5889376e-12
3.066405e-08
-1.2708194e-11
4.0422226e-08
-1.1962111e-11
-8.5441598e-09
-2.1946947e-13
-6.2530394e-08
1.1508505e-11
-6.2533111e-08
1.2461249e-11
-8.5508767e-09
6.5416805e-12
4.041543e-08
3.0661156e-08
-4.5450963e-12
3.0668602e-08
-1.3340083e-11
4.0431031e-08
-1.119968e-11
-8.5462892e-09
-2.4125281e-13
-6.2541342e-08
1.0858534e-11
-6.25442e-08
1.3106073e-11
-8.5531136e-09
4.4408423e-12
4.0424105e-08
3.0665602e-08
-6.2877695e-12
3.0674892e-08
-1.2016978e-11
4.0436765e-08
-1.1329592e-11
-8.546973e-09
-1.6961913e-13
-6.2552498e-08
1.0963e-11
-6.2555329e-08
1.1823954e-11
-8.5539708e-09
6.2582464e-12
4.0429675e-08
3.0671863e-08
-4.256816e-12
3.0679155e-08
-1.2647251e-11
4.0445166e-08
-1.057274e-11
-8.5490366e-09
-1.8890926e-13
-6.2562872e-08
1.0322018e-11
-6.256583e-08
1.2469143e-11
-8.5561073e-09
4.1710868e-12
4.0437983e-08
3.0676039e-08
-5.9913557e-12
3.0685149e-08
-1.1335418e-11
4.0450514e-08
-1.0704057e-11
-8.5496646e-09
-1.1624304e-13
-6.2573456e-08
1.0430285e-11
-6.2576373e-08
1.1199215e-11
-8.5568727e-09
5.9800648e-12
4.0443206e-08
3.0682021e-08
-3.9738072e-12
3.0689129e-08
-1.1966536e-11
4.0458518e-08
-9.9554661e-12
-8.5516648e-09
-1.3486796e-13
-6.2583267e-08
9.797786e-12
-6.2586295e-08
1.1845384e-11
-8.5589097e-09
3.9065825e-12
4.0451155e-08
3.0685933e-08
-5.7013591e-12
3.0694832e-08
-1.0667861e-11
4.0463488e-08
-1.0090742e-11
-8.5522388e-09
-6.2761385e-14
-6.2593291e-08
9.9097529e-12
-6.2596265e-08
1.058796e-11
-8.5595846e-09
5.7078057e-12
4.0456039e-08
3.0691642e-08
-3.6975668e-12
3.0698536e-08
-1.1301901e-11
4.0471103e-08
-9.3525328e-12
-8.5541774e-09
-8.2031577e-14
-6.2602552e-08
9.2855767e-12
-6.2605622e-08
1.1235888e-11
-8.5615244e-09
3.6479988e-12
4.0463636e-08
3.0695295e-08
-5.4191592e-12
3.0703957e-08
-1.0017871e-11
4.0475706e-08
-9.4938053e-12
-8.5546985e-09
-1.1602322e-14
-6.2612031e-08
9.4014272e-12
-6.2615032e-08
9.9913731e-12
-8.5621112e-09
5.442178e-12
4.0468189e-08
3.0700739e-08
-3.4293182e-12
3.0707392e-08
-1.0656553e-11
4.0482943e-08
-8.7675938e-12
-8.5565768e-09
-3.2410776e-14
-6.2620756e-08
8.7856381e-12
-6.262384e-08
1.0641911e-11
-8.563957e-09
3.3960162e-12
4.0475444e-08
3.070414e-08
-5.1458645e-12
3.071254e-08
-9.3882882e-12
4.0487189e-08
-8.9164387e-12
-8.5570459e-09
3.5601316e-14
-6.2629705e-08
8.9057333e-12
-6.2632707e-08
9.4107242e-12
-8.5644591e-09
5.1838678e-12
4.0479675e-08
3.0709326e-08
-3.1700279e-12
3.0715716e-08
-1.0032995e-11
4.0494063e-08
-8.2034007e-12
-8.5588648e-09
1.2689601e-14
-6.2637911e-08
8.2985262e-12
-6.2640983e-08
1.0064721e-11
-8.566215e-09
3.1512755e-12
4.0486598e-08
3.0712482e-08
-4.8823306e-12
3.07206e-08
-8.7812802e-12
4.0497965e-08
-8.3609926e-12
-8.5592826e-09
7.783896e-14
-6.2646347e-08
8.4233196e-12
-6.2649326e-08
8.8472433e-12
-8.5666362e-09
4.9334961e-12
4.0490515e-08
3.0717417e-08
-2.9204241e-12
3.0723527e-08
-9.4330909e-12
4.0504488e-08
-7.661923e-12
-8.5610432e-09
5.2510817e-14
-6.2654052e-08
7.8249488e-12
-6.2657088e-08
9.5054978e-12
-8.5683064e-09
2.914341e-12
4.0497115e-08
3.0720336e-08
-4.6291815e-12
3.0728157e-08
-8.1984145e-12
4.050806e-08
-7.8290921e-12
-8.5614102e-09
1.1457575e-13
-6.2661993e-08
7.9549224e-12
-6.2664926e-08
8.3020343e-12
-8.5686511e-09
4.6915916e-12
4.0500729e-08
3.0725029e-08
-2.6810195e-12
3.0730844e-08
-8.8581359e-12
4.0514248e-08
-7.1444622e-12
-8.5631133e-09
8.670666e-14
-6.2669214e-08
7.3656473e-12
-6.2672195e-08
8.9652629e-12
-8.5702405e-09
2.685681e-12
4.0507018e-08
3.072772e-08
-4.3868337e-12
3.0735232e-08
-7.6407266e-12
4.0517505e-08
-7.3217457e-12
-8.5634302e-09
1.4563184e-13
-6.267668e-08
7.5012659e-12
-6.2679549e-08
7.7760196e-12
-8.5705129e-09
4.4585752e-12
4.0510338e-08
3.0732179e-08
-2.4521348e-12
3.0737691e-08
-8.3089255e-12
4.0523371e-08
-6.651755e-12
-8.565077e-09
1.1523484e-13
-6.2683437e-08
6.9213157e-12
-6.2686345e-08
8.4448345e-12
-8.5720263e-09
2.4656555e-12
4.0516326e-08
3.073465e-08
-4.15552e-12
3.0741847e-08
-7.1087868e-12
4.0526328e-08
-6.8394443e-12
-8.5653444e-09
1.7108542e-13
-6.2690445e-08
7.0629956e-12
-6.2693235e-08
7.2699083e-12
-8.5722311e-09
4.2347533e-12
4.0519364e-08
3.0738886e-08
-2.2339218e-12
3.0744087e-08
-7.7858213e-12
4.0531889e-08
-6.1840672e-12
-8.5669358e-09
1.3827101e-13
-6.2696758e-08
6.4925441e-12
-6.2699579e-08
7.9448073e-12
-8.5736733e-09
2.2545129e-12
4.0525063e-08
3.0741145e-08
-3.9353121e-12
3.0748024e-08
-6.6027666e-12
4.053456e-08
-6.3822493e-12
-8.5671546e-09
1.9119593e-13
-6.2703329e-08
6.6406331e-12
-6.2706027e-08
6.7841829e-12
-8.573815e-09
4.0203183e-12
4.052783e-08
3.0745167e-08
-2.0263855e-12
3.0750056e-08
-7.288815e-12
4.0539832e-08
-5.7412758e-12
-8.5686918e-09
1.5613954e-13
-6.2709217e-08
6.0797856e-12
-6.2711941e-08
7.4655468e-12
-8.5751908e-09
2.0523932e-12
4.0533252e-08
3.0747224e-08
-3.7261443e-12
3.0753783e-08
-6.1224975e-12
4.0542231e-08
-5.9498711e-12
-8.568863e-09
2.0634296e-13
-6.2715372e-08
6.2345527e-12
-6.2717968e-08
6.3190997e-12
-8.5752736e-09
3.8153537e-12
4.0535758e-08
3.075104e-08
-1.8294066e-12
3.0755619e-08
-6.8175857e-12
4.0547229e-08
-5.3229436e-12
-8.5703474e-09
1.6926065e-13
-6.2720854e-08
5.6833388e-12
-6.2723472e-08
7.0071951e-12
-8.5765876e-09
1.8593334e-12
4.0540915e-08
3.0752904e-08
-3.5278346e-12
3.0759147e-08
-5.6675279e-12
4.0549371e-08
-5.5417381e-12
-8.5704719e-09
2.1697965e-13
-6.2726612e-08
5.8449691e-12
-6.2729099e-08
5.8746983e-12
-8.5766158e-09
3.6198423e-12
4.0543172e-08
3.0756525e-08
-1.6427617e-12
3.0760796e-08
-6.3715554e-12
4.0554109e-08
-4.9283824e-12
-8.5719049e-09
1.7810889e-13
-6.2731708e-08
5.3033418e-12
-6.2734214e-08
6.5696836e-12
-8.5778723e-09
1.6752768e-12
4.0548075e-08
3.0758205e-08
-3.3401044e-12
3.0764137e-08
-5.2371752e-12
4.0556008e-08
-5.157056e-12
-8.5719839e-09
2.2359688e-13
-6.2737088e-08
5.471937e-12
-6.2739461e-08
5.4508176e-12
-8.5778498e-09
3.4336754e-12
4.0550095e-08
3.076164e-08
-1.4661412e-12
3.0765609e-08
-5.949937e-12
4.0560502e-08
-4.5567094e-12
-8.573367e-09
1.831825e-13
-6.2741818e-08
4.9397746e-12
-6.2744208e-08
6.152752e-12
-8.5790531e-09
1.5000827e-12
4.0554756e-08
3.0763144e-08
-3.1625967e-12
3.0768772e-08
-4.8305706e-12
4.0562172e-08
-4.7948609e-12
-8.5734018e-09
2.2669613e-13
-6.2746839e-08
5.1153565e-12
-6.2749096e-08
5.0471151e-12
-8.5789837e-09
3.2566646e-12
4.0556548e-08
3.0766402e-08
-1.2991669e-12
3.0770077e-08
-5.5517786e-12
4.0566434e-08
-4.2068952e-12
-8.5747367e-09
1.8497955e-13
-6.2751221e-08
4.5924682e-12
-6.2753494e-08
5.7559692e-12
-8.5801375e-09
1.3335366e-12
4.0560979e-08
3.076774e-08
-2.994893e-12
3.0773072e-08
-4.4467011e-12
4.0567887e-08
-4.4540627e-12
-8.5747286e-09
2.2676945e-13
-6.2755901e-08
4.7749847e-12
-6.2758041e-08
4.6630902e-12
-8.5800246e-09
3.088552e-12
4.0562556e-08
3.0770829e-08
-1.1414069e-12
3.077422e-08
-5.1760018e-12
4.0571931e-08
-3.8778045e-12
-8.5760169e-09
1.8398094e-13
-6.2759953e-08
4.261117e-12
-6.2762109e-08
5.378756e-12
-8.5811327e-09
1.1753624e-12
4.0566767e-08
3.0772009e-08
-2.8365273e-12
3.0777056e-08
-4.084445e-12
4.0573181e-08
-4.1334838e-12
-8.5759672e-09
2.2428552e-13
-6.2764311e-08
4.4504491e-12
-6.2766335e-08
4.2981052e-12
-8.5809795e-09
2.9290223e-12
4.0568138e-08
3.0774939e-08
-9.9238939e-13
3.0778055e-08
-4.8214352e-12
4.0577019e-08
-3.568231e-12
-8.5772106e-09
1.8063957e-13
-6.276805e-08
3.9452936e-12
-6.277009e-08
5.0204075e-12
-8.5820451e-09
1.025232e-12
4.0572142e-08
3.0775968e-08
-2.6869992e-12
3.0780742e-08
-3.7426028e-12
4.0578076e-08
-3.8318901e-12
-8.5771209e-09
2.1968006e-13
-6.2772101e-08
4.1412636e-12
-6.2774011e-08
3.9514079e-12
-8.5818547e-09
2.7777129e-12
4.0573317e-08
3.0778746e-08
-8.5161386e-13
3.0781599e-08
-4.4868438e-12
4.058172e-08
-3.2769258e-12
-8.5783211e-09
1.7537173e-13
-6.2775544e-08
3.644465e-12
-6.2777471e-08
4.6801153e-12
-8.5828809e-09
8.8277552e-13
4.0577122e-08
3.0779634e-08
-2.5457844e-12
3.0784145e-08
-3.4199244e-12
4.0582596e-08
-3.5480172e-12
-8.5781927e-09
2.1334996e-13
-6.2779305e-08
3.8468447e-12
-6.2781104e-08
3.622154e-12
-8.5826557e-09
2.6342235e-12
4.0578112e-08
3.0782268e-08
-7.1856125e-13
3.0784869e-08
-4.1709534e-12
4.0586057e-08
-3.0026211e-12
-8.5793514e-09
1.6855363e-13
-6.2782467e-08
3.3580087e-12
-6.2784284e-08
4.3569892e-12
-8.5836453e-09
7.4759017e-13
4.0581729e-08
3.0783021e-08
-2.4123456e-12
3.0787282e-08
-3.1151311e-12
4.0586761e-08
-3.2805923e-12
-8.5791858e-09
2.0565061e-13
-6.2785953e-08
3.5665274e-12
-6.2787645e-08
3.3094267e-12
-8.5833879e-09
2.4981255e-12
4.0582542e-08
3.0785519e-08
-5.9270285e-13
3.078788e-08
-3.8724712e-12
4.059005e-08
-2.7440501e-12
-8.5803046e-09
1.6051911e-13
-6.2788849e-08
3.0852292e-12
-6.279056e-08
4.0500753e-12
-8.5843435e-09
6.1924939e-13
4.0585981e-08
3.0786143e-08
-2.2861385e-12
3.0790166e-08
-2.8269349e-12
4.0590592e-08
-3.0283507e-12
-8.5801033e-09
1.9689448e-13
-6.2792074e-08
3.2995824e-12
-6.2793663e-08
3.0122543e-12
-8.584056e-09
2.3689702e-12
4.0586625e-08
3.0788512e-08
-4.7350698e-13
3.0790645e-08
-3.5901038e-12
4.0593717e-08
-2.4999602e-12
-8.5811839e-09
1.5155925e-13
-6.2794716e-08
2.8253737e-12
-6.2796328e-08
3.7583743e-12
-8.5849798e-09
4.9730982e-13
4.0589894e-08
3.0789014e-08
-2.1666204e-12
3.0792812e-08
-2.5540544e-12
4.0594106e-08
-2.7900493e-12
-8.5809481e-09
1.8735194e-13
-6.2797694e-08
3.0452299e-12
-6.2799186e-08
2.7296287e-12
-8.5846642e-09
2.2462957e-12
4.0590378e-08
3.079126e-08
-3.6044512e-13
3.0793178e-08
-3.3225708e-12
4.0597077e-08
-2.2691275e-12
-8.5819921e-09
1.4192473e-13
-6.2800096e-08
2.577646e-12
-6.2801613e-08
3.4808581e-12
-8.5855583e-09
3.813179e-13
4.0593486e-08
3.0791646e-08
-2.0532542e-12
3.0795231e-08
-2.2952266e-12
4.0597319e-08
-2.5644784e-12
-8.5817232e-09
1.7725427e-13
-6.2802838e-08
2.8026544e-12
-6.2804238e-08
2.4605187e-12
-8.5852163e-09
2.1296336e-12
4.0593818e-08
3.0793775e-08
-2.5299713e-13
3.0795489e-08
-3.0686158e-12
4.0600144e-08
-2.0503646e-12
-8.5827321e-09
1.3182757e-13
-6.2805011e-08
2.3412209e-12
-6.2806439e-08
3.2164829e-12
-8.5860825e-09
2.7081638e-13
4.0596771e-08
3.079405e-08
-1.945514e-12
3.0797435e-08
-2.0492176e-12
4.0600248e-08
-2.3504683e-12
-8.5824314e-09
1.6679503e-13
-6.2807529e-08
2.5710174e-12
-6.2808843e-08
2.2038847e-12
-8.5857157e-09
2.0185149e-12
4.0596957e-08
3.0796069e-08
-1.5065508e-13
3.0797591e-08
-2.8270167e-12
4.0602933e-08
-1.8425275e-12
-8.5834065e-09
1.2144444e-13
-6.2809484e-08
2.1152555e-12
-6.2810828e-08
2.9642029e-12
-8.5865557e-09
1.6534901e-13
4.0599764e-08
3.0796239e-08
-1.8428883e-12
3.0799433e-08
-1.8148313e-12
4.0602905e-08
-2.146896e-12
-8.5830752e-09
1.5613443e-13
-6.2811787e-08
2.3494695e-12
-6.2813022e-08
1.9586897e-12
-8.5861653e-09
1.9124742e-12
4.059981e-08
3.0798151e-08
-5.2926355e-14
3.0799492e-08
-2.5965928e-12
4.0605457e-08
-1.6445214e-12
-8.584018e-09
1.1092017e-13
-6.2813534e-08
1.8989017e-12
-6.2814801e-08
2.7229805e-12
-8.5869805e-09
6.4465241e-14
4.0602477e-08
3.079822e-08
-1.7448835e-12
3.0801236e-08
-1.5909155e-12
4.0605304e-08
-1.9526901e-12
-8.583657e-09
1.4540246e-13
-6.2815633e-08
2.1371607e-12
-6.2816794e-08
1.7239106e-12
-8.5865678e-09
1.8110546e-12
4.060239e-08
3.080003e-08
4.06629e-14
3.0801201e-08
-2.3762104e-12
4.0607729e-08
-1.4553048e-12
-8.5845687e-09
1.0037126e-13
-6.281718e-08
1.6913157e-12
-6.2818376e-08
2.4917974e-12
-8.5873594e-09
-3.227604e-14
4.0604922e-08
3.0800003e-08
-1.6510259e-12
3.0802851e-08
-1.3763679e-12
4.0607455e-08
-1.7668338e-12
-8.5841792e-09
1.3470267e-13
-6.2819082e-08
1.9332505e-12
-6.2820175e-08
1.498547e-12
-8.5869255e-09
1.7138114e-12
4.0604707e-08
3.0801716e-08
1.305664e-13
3.0802726e-08
-2.1647888e-12
4.0609758e-08
-1.2738915e-12
-8.585061e-09
8.9889785e-14
-6.2820437e-08
1.4916674e-12
-6.2821568e-08
2.2696625e-12
-8.5876947e-09
-1.2530234e-13
4.0607109e-08
3.0801595e-08
-1.5608646e-12
3.0804286e-08
-1.1701403e-12
4.0609368e-08
-1.588367e-12
-8.5846439e-09
1.2411603e-13
-6.2822151e-08
1.7369172e-12
-6.2823182e-08
1.2816296e-12
-8.5872402e-09
1.6203153e-12
4.0606771e-08
3.0803215e-08
2.1721474e-13
3.0804074e-08
-1.9613034e-12
4.0611554e-08
-1.0993534e-12
-8.5854967e-09
7.9547269e-14
-6.2823321e-08
1.2991497e-12
-6.2824393e-08
2.0556204e-12
-8.587988e-09
-2.1502518e-13
4.0609049e-08
3.0803004e-08
-1.4739724e-12
3.0805548e-08
-9.712427e-13
4.0611052e-08
-1.4163891e-12
-8.5850528e-09
1.1370495e-13
-6.2824852e-08
1.547366e-12
-6.2825828e-08
1.0722287e-12
-8.5875138e-09
1.5301553e-12
4.0608591e-08
3.0804534e-08
3.0101438e-13
3.0805252e-08
-1.7647902e-12
4.0613126e-08
-9.3082242e-13
-8.5858778e-09
6.9398352e-14
-6.2825844e-08
1.1129862e-12
-6.2826863e-08
1.8487593e-12
-8.5882409e-09
-3.0183672e-13
4.0610749e-08
3.0804236e-08
-1.3899485e-12
3.0806641e-08
-7.7874672e-13
4.0612514e-08
-1.2500601e-12
-8.5854078e-09
1.0351691e-13
-6.2827198e-08
1.3638371e-12
-6.2828124e-08
8.6946085e-13
-8.5877477e-09
1.4429423e-12
4.0610175e-08
3.0805679e-08
3.823458e-13
3.0806264e-08
-1.5743491e-12
4.0614479e-08
-7.6749151e-13
-8.5862057e-09
5.948456e-14
-6.2828017e-08
9.3243943e-13
-6.2828989e-08
1.6482179e-12
-8.5884548e-09
-3.8610682e-13
4.0612217e-08
3.0805297e-08
-1.3084194e-12
3.0807571e-08
-5.9178922e-13
4.0613762e-08
-1.0886023e-12
-8.5857104e-09
9.3587706e-14
-6.28292e-08
1.1856137e-12
-6.2830082e-08
6.7249662e-13
-8.5879429e-09
1.358311e-12
4.0611531e-08
3.0806655e-08
4.6156122e-13
3.0807115e-08
-1.389147e-12
4.0615621e-08
-6.0861656e-13
-8.586482e-09
4.9837748e-14
-6.282985e-08
7.5681827e-13
-6.2830781e-08
1.453192e-12
-8.5886308e-09
-4.6818051e-13
4.061346e-08
3.0806191e-08
-1.2290412e-12
3.0808343e-08
-4.0957534e-13
4.0614801e-08
-9.313019e-13
-8.5859619e-09
8.3945685e-14
-6.2830867e-08
1.0120293e-12
-6.283171e-08
4.805668e-13
-8.5881007e-09
1.2759236e-12
4.0612664e-08
3.0807466e-08
5.3898374e-13
3.0807809e-08
-1.2084214e-12
4.0616556e-08
-4.5351823e-13
-8.586708e-09
4.0483601e-14
-6.2831353e-08
5.8548572e-13
-6.2832247e-08
1.2629424e-12
-8.5887696e-09
-5.4837504e-13
4.0614483e-08
3.0806922e-08
-1.151501e-12
3.080896e-08
-2.313825e-13
4.0615636e-08
-7.7751102e-13
-8.5861635e-09
7.4614551e-14
-6.2832206e-08
8.4247521e-13
-6.2833016e-08
2.9297003e-13
-8.5882216e-09
1.1954719e-12
4.061358e-08
3.0808116e-08
6.1490465e-13
3.080835e-08
-1.0314844e-12
4.061729e-08
-3.0158329e-13
-8.5868847e-09
3.1445062e-14
-6.2832531e-08
4.1786664e-13
-6.2833394e-08
1.0768011e-12
-8.5888721e-09
-6.26977e-13
4.0615291e-08
3.0807494e-08
-1.075519e-12
3.0809425e-08
-5.6564732e-14
4.061627e-08
-6.2664881e-13
-8.5863164e-09
6.5616977e-14
-6.2833225e-08
6.7640939e-13
-6.2834007e-08
1.0908017e-13
-8.5883063e-09
1.11668e-12
4.0614282e-08
3.0808609e-08
6.8958179e-13
3.080874e-08
-8.5772714e-13
4.0617826e-08
-1.5226738e-13
-8.5870131e-09
2.2745927e-14
-6.2833392e-08
2.5345595e-13
-6.2834229e-08
8.941799e-13
-8.5889386e-09
-7.0423943e-13
4.0615888e-08
3.0807909e-08
-1.0008505e-12
3.080974e-08
1.1544412e-13
4.0616709e-08
-4.782055e-13
-8.5864214e-09
5.6978295e-14
-6.2833928e-08
5.1336344e-13
-6.2834687e-08
-7.1646083e-14
-8.5883553e-09
1.0393086e-12
4.0614776e-08
3.0808948e-08
7.6323743e-13