/*--------------------------------*- C++ -*----------------------------------*\
| =========                 |                                                 |
| \\      /  F ield         | OpenFOAM: The Open Source CFD Toolbox           |
|  \\    /   O peration     | Version:  5.x                                   |
|   \\  /    A nd           | Web:      www.OpenFOAM.org                      |
|    \\/     M anipulation  |                                                 |
\*---------------------------------------------------------------------------*/
FoamFile
{
    version     2.0;
    format      ascii;
    class       volSymmTensorField;
    location    "6";
    object      sigma;
}
// * * * * * * * * * * * * * * * * * * * * * * * * * * * * * * * * * * * * * //

dimensions      [0 2 -2 0 0 0 0];

internalField   nonuniform List<symmTensor> 
1920
(
(0.0026591311 0.014613608 0 -0.0090761493 0 0)
(-0.00045228806 0.0056431928 0 0.0016554177 0 0)
(-0.0017764172 0.0035598843 0 0.0013607243 0 0)
(-0.0013211314 0.0011312515 0 0.0013236147 0 0)
(-0.0013210994 -0.0011312621 0 0.001323582 0 0)
(-0.0017764283 -0.0035598376 0 0.0013607369 0 0)
(-0.00045229197 -0.0056431826 0 0.0016554218 0 0)
(0.0026591298 -0.014613608 0 -0.0090761458 0 0)
(0.004977283 0.010074325 0 -0.0049075331 0 0)
(0.00052344664 0.0019881001 0 0.00058602484 0 0)
(-0.0030803686 0.00071234378 0 0.0026037366 0 0)
(-0.0030509437 0.00039141481 0 0.0027900352 0 0)
(-0.0030509309 -0.00039141757 0 0.0027900204 0 0)
(-0.0030803842 -0.00071228964 0 0.0026037528 0 0)
(0.00052344935 -0.0019880977 0 0.00058601876 0 0)
(0.0049772831 -0.010074328 0 -0.0049075339 0 0)
(0.0044465293 0.0086350995 0 -0.0058186212 0 0)
(0.0011316634 0.0011401167 0 -0.00061784911 0 0)
(-0.0025713632 0.00027939837 0 0.0022908688 0 0)
(-0.0032411066 9.1886552e-05 0 0.0030837774 0 0)
(-0.0032411346 -9.1880968e-05 0 0.0030838081 0 0)
(-0.0025713305 -0.0002794731 0 0.0022908331 0 0)
(0.0011316696 -0.0011401297 0 -0.00061785381 0 0)
(0.0044465314 -0.0086351002 0 -0.0058186251 0 0)
(0.0034578502 0.0080430612 0 -0.0048564098 0 0)
(0.0012759499 0.0016337509 0 -0.0010825361 0 0)
(-0.0018870814 0.0003243312 0 0.0017657875 0 0)
(-0.0029499001 2.7095405e-05 0 0.0029013779 0 0)
(-0.0029498603 -2.7108065e-05 0 0.0029013389 0 0)
(-0.0018871465 -0.0003242247 0 0.0017658516 0 0)
(0.0012759552 -0.0016337437 0 -0.0010825417 0 0)
(0.0034578549 -0.0080430607 0 -0.0048564144 0 0)
(0.0025965648 0.0076968542 0 -0.0036427502 0 0)
(0.0011676877 0.0022768396 0 -0.0011295788 0 0)
(-0.0013308569 0.0007237697 0 0.0012492678 0 0)
(-0.0025068803 0.00011326639 0 0.0024759629 0 0)
(-0.0025069933 -0.00011326671 0 0.0024760777 0 0)
(-0.0013313181 -0.00072344402 0 0.0012497249 0 0)
(0.001167684 -0.0022768353 0 -0.001129575 0 0)
(0.0025965782 -0.0076968534 0 -0.0036427645 0 0)
(0.0019820946 0.0074660228 0 -0.0028108591 0 0)
(0.00098312035 0.0029289693 0 -0.0010415579 0 0)
(-0.0010240617 0.0010381377 0 0.0009553915 0 0)
(-0.0018285551 0.0002678651 0 0.0018088738 0 0)
(-0.0018285023 -0.00026789139 0 0.0018088179 0 0)
(-0.0010234749 -0.0010386591 0 0.00095480812 0 0)
(0.00098315395 -0.0029289617 0 -0.0010415916 0 0)
(0.0019820964 -0.0074660151 0 -0.0028108596 0 0)
(0.0013549635 0.0072329629 0 -0.0020712697 0 0)
(0.00075399582 0.0035358149 0 -0.00088681627 0 0)
(-0.00063781669 0.001517884 0 0.00057499038 0 0)
(-0.001403307 0.00040501839 0 0.0013936006 0 0)
(-0.0014032734 -0.00040503454 0 0.0013935677 0 0)
(-0.00063776612 -0.0015179115 0 0.00057493893 0 0)
(0.00075401591 -0.0035358029 0 -0.00088683522 0 0)
(0.0013549651 -0.0072329497 0 -0.0020712707 0 0)
(0.00094990047 0.0070853524 0 -0.001609391 0 0)
(0.0005897848 0.0038778508 0 -0.0007692592 0 0)
(-0.00040498815 0.0018919178 0 0.00034022292 0 0)
(-0.0010434193 0.00053144474 0 0.0010398866 0 0)
(-0.0010434828 -0.0005314283 0 0.0010399488 0 0)
(-0.00040499859 -0.0018918785 0 0.00034023359 0 0)
(0.00058978562 -0.0038778722 0 -0.00076926209 0 0)
(0.00094989937 -0.0070853392 0 -0.0016093883 0 0)
(0.00065400742 0.0069839128 0 -0.0012782317 0 0)
(0.00042533525 0.0041928707 0 -0.00064128962 0 0)
(-0.00026701359 0.0021602963 0 0.00019551842 0 0)
(-0.00076676949 0.00063535043 0 0.00076462194 0 0)
(-0.00076665612 -0.00063539778 0 0.00076451112 0 0)
(-0.00026697141 -0.0021603441 0 0.00019547593 0 0)
(0.00042536549 -0.0041928348 0 -0.00064131902 0 0)
(0.00065402296 -0.0069838985 0 -0.0012782464 0 0)
(0.00044030577 0.0069131072 0 -0.0010428593 0 0)
(0.00030776646 0.004395136 0 -0.00054886173 0 0)
(-0.00017053127 0.0023761271 0 9.1078046e-05 0 0)
(-0.00052786039 0.00073044048 0 0.00052485807 0 0)
(-0.00052800618 -0.00073038782 0 0.00052500227 0 0)
(-0.00017054647 -0.0023760735 0 9.1094672e-05 0 0)
(0.00030776319 -0.0043951488 0 -0.00054885928 0 0)
(0.00044030252 -0.0069130872 0 -0.0010428539 0 0)
(0.00028940551 0.0068650073 0 -0.0008790805 0 0)
(0.00021850151 0.0045389228 0 -0.00047716464 0 0)
(-0.00010649169 0.0025384114 0 2.002608e-05 0 0)
(-0.00035865174 0.00080130066 0 0.00035391045 0 0)
(-0.00035853777 -0.00080135865 0 0.00035379686 0 0)
(-0.00010646145 -0.002538464 0 1.9994132e-05 0 0)
(0.00021852355 -0.0045388871 0 -0.00047718499 0 0)
(0.00028942032 -0.0068649892 0 -0.00087909353 0 0)
(0.0001866598 0.0068332882 0 -0.00076881214 0 0)
(0.00015054132 0.004642364 0 -0.00042120782 0 0)
(-6.5120961e-05 0.0026560194 0 -2.6899982e-05 0 0)
(-0.00024044707 0.00085288711 0 0.00023393445 0 0)
(-0.00024044359 -0.00085289359 0 0.00023393052 0 0)
(-6.5135572e-05 -0.0026559745 0 -2.6884064e-05 0 0)
(0.00015053333 -0.0046423703 0 -0.00042120038 0 0)
(0.000186655 -0.0068332648 0 -0.00076880487 0 0)
(0.00011848577 0.0068128202 0 -0.00069629402 0 0)
(0.00010129111 0.004713407 0 -0.000379882 0 0)
(-3.900889e-05 0.0027387853 0 -5.7184484e-05 0 0)
(-0.00015815573 0.00089020829 0 0.00015013108 0 0)
(-0.00015827056 -0.00089017579 0 0.00015024598 0 0)
(-3.8996454e-05 -0.0027388261 0 -5.7198525e-05 0 0)
(0.00010130314 -0.0047133773 0 -0.0003798923 0 0)
(0.00011849497 -0.0068127995 0 -0.00069630066 0 0)
(7.3889731e-05 0.006799781 0 -0.00064921256 0 0)
(6.6829992e-05 0.0047606834 0 -0.0003505525 0 0)
(-2.2777045e-05 0.002795849 0 -7.6407277e-05 0 0)
(-0.0001025107 0.00091618141 0 9.3323667e-05 0 0)
(-0.00010222162 -0.00091631463 0 9.3033158e-05 0 0)
(-2.279027e-05 -0.0027958216 0 -7.6393211e-05 0 0)
(6.6818603e-05 -0.0047606852 0 -0.00035054102 0 0)
(7.3885609e-05 -0.0067997579 0 -0.00064920578 0 0)
(4.5155358e-05 0.0067916135 0 -0.00061909242 0 0)
(4.3270341e-05 0.0047915705 0 -0.00033024882 0 0)
(-1.2908879e-05 0.0028343831 0 -8.8346978e-05 0 0)
(-6.5474106e-05 0.00093395695 0 5.5446966e-05 0 0)
(-6.5924879e-05 -0.00093378054 0 5.5899366e-05 0 0)
(-1.2908903e-05 -0.002834411 0 -8.8348213e-05 0 0)
(4.3272896e-05 -0.0047915503 0 -0.00033024991 0 0)
(4.5158991e-05 -0.006791593 0 -0.00061909323 0 0)
(2.6971139e-05 0.0067866051 0 -0.00060016075 0 0)
(2.748685e-05 0.0048113775 0 -0.00031649924 0 0)
(-7.0020511e-06 0.0028600324 0 -9.5644384e-05 0 0)
(-4.0551014e-05 0.00094619194 0 2.9937771e-05 0 0)
(-3.9844806e-05 -0.00094652113 0 2.92277e-05 0 0)
(-7.0134965e-06 -0.0028600215 0 -9.5632637e-05 0 0)
(2.7475439e-05 -0.004811376 0 -0.00031648734 0 0)
(2.6966947e-05 -0.0067865842 0 -0.00060015392 0 0)
(1.5652154e-05 0.0067836066 0 -0.00058846094 0 0)
(1.7088749e-05 0.0048238961 0 -0.00030734766 0 0)
(-3.5817561e-06 0.0028767332 0 -9.9972676e-05 0 0)
(-2.4926056e-05 0.00095407523 0 1.3922735e-05 0 0)
(-2.5453041e-05 -0.00095385661 0 1.4452185e-05 0 0)
(-3.5877546e-06 -0.0028767509 0 -9.9967637e-05 0 0)
(1.7085135e-05 -0.0048238845 0 -0.00030734295 0 0)
(1.5651673e-05 -0.006783588 0 -0.00058845776 0 0)
(8.7666585e-06 0.0067818701 0 -0.00058139858 0 0)
(1.0385257e-05 0.0048316283 0 -0.0003013913 0 0)
(-1.6490904e-06 0.0028874728 0 -0.00010248526 0 0)
(-1.5048377e-05 0.00095917503 0 3.790971e-06 0 0)
(-1.4826023e-05 -0.00095929717 0 3.5667181e-06 0 0)
(-1.6582878e-06 -0.0028874734 0 -0.00010247617 0 0)
(1.0375685e-05 -0.0048316253 0 -0.00030138116 0 0)
(8.7626662e-06 -0.0067818523 0 -0.00058139216 0 0)
(4.6600335e-06 0.0067809045 0 -0.00057722364 0 0)
(6.1247466e-06 0.0048363337 0 -0.00029757132 0 0)
(-6.1462963e-07 0.0028942023 0 -0.00010387808 0 0)
(-8.6514663e-06 0.00096254334 0 -2.7690728e-06 0 0)
(-8.8097847e-06 -0.00096248624 0 -2.6100613e-06 0 0)
(-6.2205762e-07 -0.0028942127 0 -0.00010387139 0 0)
(6.1184344e-06 -0.004836328 0 -0.00029756426 0 0)
(4.6572774e-06 -0.0067808884 0 -0.00057721851 0 0)
(2.3297969e-06 0.0067804085 0 -0.00057488133 0 0)
(3.4913784e-06 0.0048391058 0 -0.0002951869 0 0)
(-9.1736943e-08 0.0028983629 0 -0.00010461916 0 0)
(-4.7638866e-06 0.00096464428 0 -6.7572597e-06 0 0)
(-4.6418164e-06 -0.00096472092 0 -6.8805245e-06 0 0)
(-9.8668872e-08 -0.0028983694 0 -0.00010461262 0 0)
(3.4842776e-06 -0.0048391025 0 -0.00029517929 0 0)
(2.3267817e-06 -0.0067803936 0 -0.0005748762 0 0)
(9.8779958e-07 0.0067801675 0 -0.00057355064 0 0)
(1.886627e-06 0.0048407061 0 -0.00029372186 0 0)
(1.4220047e-07 0.0029008515 0 -0.00010497883 0 0)
(-2.3475425e-06 0.00096598334 0 -9.2353239e-06 0 0)
(-2.5545636e-06 -0.00096589455 0 -9.0270436e-06 0 0)
(1.3560645e-07 -0.0029008577 0 -0.00010497283 0 0)
(1.8798883e-06 -0.0048407035 0 -0.00029371462 0 0)
(9.8435631e-07 -0.0067801538 0 -0.0005735452 0 0)
(2.8698803e-07 0.0067800782 0 -0.00057287119 0 0)
(9.4979118e-07 0.0048415811 0 -0.0002928559 0 0)
(2.2266363e-07 0.0029023081 0 -0.00010513141 0 0)
(-1.1427941e-06 0.00096668609 0 -1.0473906e-05 0 0)
(-9.7661273e-07 -0.00096678952 0 -1.064197e-05 0 0)
(2.1727977e-07 -0.002902316 0 -0.0001051265 0 0)
(9.447647e-07 -0.0048415778 0 -0.00029285046 0 0)
(2.8432284e-07 -0.0067800657 0 -0.00057286674 0 0)
(-4.7942893e-08 0.0067800702 0 -0.00057255769 0 0)
(4.1253868e-07 0.0048420375 0 -0.00029235582 0 0)
(2.2850527e-07 0.0029031212 0 -0.00010517392 0 0)
(-3.0870505e-07 0.00096718444 0 -1.1328724e-05 0 0)
(-3.3342925e-07 -0.00096718512 0 -1.1303941e-05 0 0)
(2.2329391e-07 -0.0029031254 0 -0.00010516923 0 0)
(4.0646361e-07 -0.0048420359 0 -0.0002923494 0 0)
(-5.1062239e-08 -0.0067800587 0 -0.00057255294 0 0)
(-1.943573e-07 0.0067800996 0 -0.00057243146 0 0)
(1.2676501e-07 0.0048422509 0 -0.00029208343 0 0)
(2.0008122e-07 0.0029035529 0 -0.00010516461 0 0)
(8.5404115e-09 0.00096739614 0 -1.1655414e-05 0 0)
(-5.1939053e-08 -0.00096737405 0 -1.1594901e-05 0 0)
(1.9554985e-07 -0.00290356 0 -0.00010516052 0 0)
(1.2298531e-07 -0.004842248 0 -0.00029207933 0 0)
(-1.9691517e-07 -0.006780089 0 -0.00057242741 0 0)
(-2.2941968e-07 0.0067801381 0 -0.000572412 0 0)
(-1.5810858e-08 0.0048423366 0 -0.00029194625 0 0)
(1.631762e-07 0.0029037624 0 -0.00010513408 0 0)
(1.3569885e-07 0.00096749255 0 -1.1787406e-05 0 0)
(1.2767212e-07 -0.00096749909 0 -1.1779526e-05 0 0)
(1.5916661e-07 -0.0029037663 0 -0.00010513049 0 0)
(-2.0741333e-08 -0.004842335 0 -0.00029194103 0 0)
(-2.3198865e-07 -0.0067801283 0 -0.00057240811 0 0)
(-2.1532183e-07 0.0067801792 0 -0.00057243953 0 0)
(-8.618452e-08 0.0048423592 0 -0.00029187342 0 0)
(1.275755e-07 0.0029038468 0 -0.00010510067 0 0)
(1.8627478e-07 0.00096754316 0 -1.1839672e-05 0 0)
(1.7439242e-07 -0.00096754373 0 -1.1827993e-05 0 0)
(1.2341467e-07 -0.0029038521 0 -0.00010509687 0 0)
(-8.9812488e-08 -0.0048423574 0 -0.00029186955 0 0)
(-2.1804686e-07 -0.0067801696 0 -0.0005724355 0 0)
(-1.8232029e-07 0.0067802109 0 -0.00057248131 0 0)
(-9.9008017e-08 0.0048423438 0 -0.0002918591 0 0)
(9.3917102e-08 0.0029038719 0 -0.00010506502 0 0)
(1.8562427e-07 0.00096755525 0 -1.1839632e-05 0 0)
(1.8656146e-07 -0.00096756477 0 -1.1840791e-05 0 0)
(9.0145652e-08 -0.0029038758 0 -0.00010506162 0 0)
(-1.0371454e-07 -0.0048423418 0 -0.00029185403 0 0)
(-1.8400283e-07 -0.006780203 0 -0.00057247861 0 0)
(-1.4378942e-07 0.0067802397 0 -0.00057252696 0 0)
(-9.5487069e-08 0.0048423134 0 -0.00029185928 0 0)
(6.7443751e-08 0.0029038576 0 -0.00010503691 0 0)
(1.6652598e-07 0.00096755944 0 -1.1820149e-05 0 0)
(1.667682e-07 -0.00096756627 0 -1.1820665e-05 0 0)
(6.3762221e-08 -0.0029038619 0 -0.00010503348 0 0)
(-9.9036694e-08 -0.004842312 0 -0.0002918555 0 0)
(-1.4559276e-07 -0.0067802323 0 -0.00057252414 0 0)
(-1.1014294e-07 0.0067802598 0 -0.00057256508 0 0)
(-7.9968982e-08 0.0048422864 0 -0.00029187213 0 0)
(4.765248e-08 0.0029038318 0 -0.00010501432 0 0)
(1.4268465e-07 0.00096755048 0 -1.1795946e-05 0 0)
(1.4038306e-07 -0.00096755844 0 -1.1793768e-05 0 0)
(4.4152993e-08 -0.0029038351 0 -0.0001050111 0 0)
(-8.3824874e-08 -0.0048422856 0 -0.00029186801 0 0)
(-1.1205045e-07 -0.0067802525 0 -0.00057256225 0 0)
(-8.3676755e-08 0.0067802757 0 -0.00057259531 0 0)
(-6.5625971e-08 0.004842263 0 -0.00029188321 0 0)
(3.1502444e-08 0.0029038016 0 -0.00010499644 0 0)
(1.0955708e-07 0.00096754056 0 -1.1761992e-05 0 0)
(1.086348e-07 -0.00096754683 0 -1.1761287e-05 0 0)
(2.8755857e-08 -0.0029038059 0 -0.00010499393 0 0)
(-6.8824076e-08 -0.0048422617 0 -0.00029187984 0 0)
(-8.5299387e-08 -0.0067802695 0 -0.00057259284 0 0)
(-5.9611217e-08 0.0067802877 0 -0.00057262137 0 0)
(-5.0516102e-08 0.0048422419 0 -0.00029189697 0 0)
(2.2594231e-08 0.0029037749 0 -0.00010498543 0 0)
(8.9816386e-08 0.00096753214 0 -1.1741884e-05 0 0)
(8.6170953e-08 -0.00096753703 0 -1.173833e-05 0 0)
(1.945345e-08 -0.0029037776 0 -0.00010498254 0 0)
(-5.38948e-08 -0.0048422409 0 -0.00029189336 0 0)
(-6.1242072e-08 -0.0067802817 0 -0.00057261896 0 0)
(-4.4255246e-08 0.0067802967 0 -0.00057263869 0 0)
(-3.8947567e-08 0.0048422262 0 -0.00029190629 0 0)
(1.5444996e-08 0.0029037551 0 -0.00010497717 0 0)
(6.3562956e-08 0.00096752052 0 -1.1714931e-05 0 0)
(6.19949e-08 -0.00096752558 0 -1.1713537e-05 0 0)
(1.248669e-08 -0.002903758 0 -0.00010497439 0 0)
(-4.1844339e-08 -0.0048422254 0 -0.00029190324 0 0)
(-4.5700176e-08 -0.0067802916 0 -0.00057263654 0 0)
(-3.0573485e-08 0.0067803029 0 -0.00057265311 0 0)
(-2.8782348e-08 0.004842213 0 -0.00029191606 0 0)
(1.232401e-08 0.0029037382 0 -0.00010497243 0 0)
(4.8402625e-08 0.00096751414 0 -1.1699567e-05 0 0)
(4.7169889e-08 -0.00096751845 0 -1.1698428e-05 0 0)
(9.6697474e-09 -0.0029037406 0 -0.00010496998 0 0)
(-3.1678327e-08 -0.0048422123 0 -0.00029191295 0 0)
(-3.2005786e-08 -0.006780298 0 -0.00057265103 0 0)
(-2.2457532e-08 0.0067803078 0 -0.00057266228 0 0)
(-2.1484596e-08 0.0048422041 0 -0.00029192195 0 0)
(7.9582046e-09 0.0029037252 0 -0.00010496769 0 0)
(3.3630613e-08 0.00096750639 0 -1.1684335e-05 0 0)
(3.2332165e-08 -0.00096751007 0 -1.1683165e-05 0 0)
(5.4142574e-09 -0.0029037275 0 -0.00010496529 0 0)
(-2.3996466e-08 -0.0048422036 0 -0.00029191929 0 0)
(-2.3727433e-08 -0.0067803036 0 -0.00057266043 0 0)
(-1.5673926e-08 0.006780311 0 -0.00057266926 0 0)
(-1.5983897e-08 0.0048421967 0 -0.00029192752 0 0)
(6.3740092e-09 0.0029037146 0 -0.00010496507 0 0)
(2.5546774e-08 0.00096750326 0 -1.1676209e-05 0 0)
(2.5080228e-08 -0.00096750691 0 -1.1675828e-05 0 0)
(4.2187748e-09 -0.0029037166 0 -0.00010496306 0 0)
(-1.8396587e-08 -0.0048421963 0 -0.00029192493 0 0)
(-1.6916808e-08 -0.0067803071 0 -0.00057266748 0 0)
(-1.1607707e-08 0.0067803136 0 -0.00057267396 0 0)
(-1.1598937e-08 0.0048421917 0 -0.00029193092 0 0)
(4.2801016e-09 0.0029037071 0 -0.00010496294 0 0)
(1.8755317e-08 0.00096749911 0 -1.1669127e-05 0 0)
(1.7661379e-08 -0.00096750172 0 -1.1668131e-05 0 0)
(2.2526561e-09 -0.0029037091 0 -0.00010496102 0 0)
(-1.372187e-08 -0.0048421915 0 -0.00029192866 0 0)
(-1.2727293e-08 -0.0067803103 0 -0.00057267236 0 0)
(-8.5305908e-09 0.0067803155 0 -0.00057267701 0 0)
(-9.2144504e-09 0.0048421878 0 -0.00029193362 0 0)
(3.6204908e-09 0.002903701 0 -0.00010496157 0 0)
(1.4696091e-08 0.00096749749 0 -1.1665113e-05 0 0)
(1.4366222e-08 -0.00096750074 0 -1.1664855e-05 0 0)
(1.9048578e-09 -0.0029037028 0 -0.00010495996 0 0)
(-1.1170254e-08 -0.0048421876 0 -0.00029193152 0 0)
(-9.5949426e-09 -0.0067803124 0 -0.0005726755 0 0)
(-6.7075531e-09 0.0067803171 0 -0.0005726793 0 0)
(-6.6699885e-09 0.0048421851 0 -0.00029193536 0 0)
(2.5697146e-09 0.0029036965 0 -0.00010496065 0 0)
(1.1752858e-08 0.00096749541 0 -1.1661965e-05 0 0)
(1.1158635e-08 -0.00096749795 0 -1.1661457e-05 0 0)
(1.0089968e-09 -0.0029036983 0 -0.00010495918 0 0)
(-8.3857359e-09 -0.004842185 0 -0.00029193353 0 0)
(-7.6550484e-09 -0.0067803144 0 -0.00057267795 0 0)
(-5.2917127e-09 0.0067803183 0 -0.00057268059 0 0)
(-5.9544557e-09 0.0048421831 0 -0.00029193653 0 0)
(2.4415737e-09 0.0029036927 0 -0.00010495995 0 0)
(9.7886676e-09 0.0009674944 0 -1.166009e-05 0 0)
(9.5608341e-09 -0.00096749737 0 -1.1659922e-05 0 0)
(1.1246427e-09 -0.0029036943 0 -0.00010495872 0 0)
(-7.4857312e-09 -0.004842183 0 -0.00029193488 0 0)
(-6.1697105e-09 -0.0067803159 0 -0.00057267935 0 0)
(-4.6277405e-09 0.0067803194 0 -0.00057268164 0 0)
(-4.4512252e-09 0.0048421816 0 -0.0002919373 0 0)
(1.7954908e-09 0.0029036903 0 -0.00010495954 0 0)
(8.4881916e-09 0.00096749314 0 -1.1658621e-05 0 0)
(8.1074432e-09 -0.00096749538 0 -1.1658317e-05 0 0)
(6.4321651e-10 -0.0029036919 0 -0.00010495846 0 0)
(-5.7769176e-09 -0.0048421816 0 -0.00029193588 0 0)
(-5.3964098e-09 -0.0067803173 0 -0.00057268054 0 0)
(-3.8720308e-09 0.0067803204 0 -0.00057268224 0 0)
(-4.5030885e-09 0.0048421804 0 -0.00029193777 0 0)
(1.9218637e-09 0.0029036877 0 -0.00010495916 0 0)
(7.4891567e-09 0.00096749247 0 -1.1657733e-05 0 0)
(7.2988008e-09 -0.00096749497 0 -1.165759e-05 0 0)
(9.6021163e-10 -0.002903689 0 -0.00010495828 0 0)
(-5.6574888e-09 -0.0048421804 0 -0.00029193653 0 0)
(-4.568197e-09 -0.0067803185 0 -0.00057268124 0 0)
(-3.7294714e-09 0.0067803212 0 -0.00057268273 0 0)
(-3.4986418e-09 0.0048421795 0 -0.00029193809 0 0)
(1.4037579e-09 0.0029036864 0 -0.00010495894 0 0)
(6.9210674e-09 0.00096749156 0 -1.1657013e-05 0 0)
(6.654786e-09 -0.00096749346 0 -1.1656815e-05 0 0)
(5.9527062e-10 -0.0029036877 0 -0.0001049582 0 0)
(-4.483462e-09 -0.0048421795 0 -0.00029193703 0 0)
(-4.3327874e-09 -0.0067803196 0 -0.00057268185 0 0)
(-3.2362593e-09 0.0067803221 0 -0.00057268305 0 0)
(-3.8672203e-09 0.0048421788 0 -0.00029193828 0 0)
(1.6359297e-09 0.0029036844 0 -0.00010495871 0 0)
(6.3375906e-09 0.00096749108 0 -1.1656552e-05 0 0)
(6.1908326e-09 -0.00096749314 0 -1.1656442e-05 0 0)
(9.6961897e-10 -0.0029036855 0 -0.00010495811 0 0)
(-4.7056436e-09 -0.0048421788 0 -0.00029193737 0 0)
(-3.7707569e-09 -0.0067803206 0 -0.00057268226 0 0)
(-3.3093561e-09 0.0067803228 0 -0.0005726833 0 0)
(-3.0724085e-09 0.0048421781 0 -0.00029193841 0 0)
(1.1636723e-09 0.0029036836 0 -0.00010495857 0 0)
(6.091472e-09 0.00096749032 0 -1.165616e-05 0 0)
(5.9089832e-09 -0.00096749192 0 -1.165604e-05 0 0)
(6.2535216e-10 -0.0029036847 0 -0.00010495808 0 0)
(-3.7775269e-09 -0.0048421781 0 -0.00029193765 0 0)
(-3.7686903e-09 -0.0067803215 0 -0.00057268262 0 0)
(-2.9168911e-09 0.0067803237 0 -0.00057268351 0 0)
(-3.5628079e-09 0.0048421775 0 -0.0002919385 0 0)
(1.4426954e-09 0.0029036819 0 -0.0001049584 0 0)
(5.6795978e-09 0.00096748994 0 -1.1655876e-05 0 0)
(5.5822452e-09 -0.00096749166 0 -1.1655807e-05 0 0)
(1.0028071e-09 -0.0029036827 0 -0.00010495803 0 0)
(-4.1524816e-09 -0.0048421775 0 -0.00029193785 0 0)
(-3.3160146e-09 -0.0067803225 0 -0.0005726829 0 0)
(-3.0734729e-09 0.0067803244 0 -0.00057268368 0 0)
(-2.8447206e-09 0.004842177 0 -0.00029193857 0 0)
(9.941475e-10 0.0029036813 0 -0.0001049583 0 0)
(5.5716099e-09 0.00096748926 0 -1.1655625e-05 0 0)
(5.4531659e-09 -0.00096749062 0 -1.1655565e-05 0 0)
(6.5301227e-10 -0.0029036821 0 -0.00010495801 0 0)
(-3.3339147e-09 -0.0048421769 0 -0.00029193803 0 0)
(-3.4141691e-09 -0.0067803232 0 -0.00057268315 0 0)
(-2.7159902e-09 0.0067803252 0 -0.00057268384 0 0)
(-3.3769029e-09 0.0048421765 0 -0.00029193862 0 0)
(1.2987087e-09 0.0029036797 0 -0.00010495817 0 0)
(5.2292021e-09 0.00096748891 0 -1.1655415e-05 0 0)
(5.1744315e-09 -0.00096749038 0 -1.1655382e-05 0 0)
(1.019332e-09 -0.0029036804 0 -0.00010495795 0 0)
(-3.782427e-09 -0.0048421764 0 -0.00029193818 0 0)
(-3.0072168e-09 -0.0067803241 0 -0.00057268337 0 0)
(-2.9030103e-09 0.0067803258 0 -0.00057268397 0 0)
(-2.680519e-09 0.004842176 0 -0.00029193867 0 0)
(8.6662483e-10 0.0029036792 0 -0.00010495809 0 0)
(5.1808971e-09 0.00096748828 0 -1.1655226e-05 0 0)
(5.1072676e-09 -0.00096748948 0 -1.1655207e-05 0 0)
(6.5890077e-10 -0.0029036799 0 -0.00010495793 0 0)
(-3.013438e-09 -0.0048421759 0 -0.0002919383 0 0)
(-3.1510157e-09 -0.0067803248 0 -0.00057268357 0 0)
(-2.5554244e-09 0.0067803267 0 -0.00057268412 0 0)
(-3.2230453e-09 0.0048421756 0 -0.00029193873 0 0)
(1.1881291e-09 0.0029036777 0 -0.00010495799 0 0)
(4.8675532e-09 0.00096748795 0 -1.1655046e-05 0 0)
(4.8423159e-09 -0.00096748923 0 -1.1655039e-05 0 0)
(1.0132633e-09 -0.0029036783 0 -0.00010495787 0 0)
(-3.5000895e-09 -0.0048421754 0 -0.00029193842 0 0)
(-2.7647262e-09 -0.0067803257 0 -0.00057268376 0 0)
(-2.7532236e-09 0.0067803272 0 -0.00057268424 0 0)
(-2.5286657e-09 0.0048421751 0 -0.00029193878 0 0)
(7.6883468e-10 0.0029036772 0 -0.00010495793 0 0)
(4.8469749e-09 0.00096748736 0 -1.1654887e-05 0 0)
(4.8007978e-09 -0.00096748846 0 -1.1654894e-05 0 0)
(6.4367336e-10 -0.0029036779 0 -0.00010495784 0 0)
(-2.7555615e-09 -0.004842175 0 -0.00029193852 0 0)
(-2.9324932e-09 -0.0067803263 0 -0.00057268392 0 0)
(-2.4069978e-09 0.006780328 0 -0.00057268438 0 0)
(-3.0711929e-09 0.0048421747 0 -0.00029193884 0 0)
(1.102605e-09 0.0029036759 0 -0.00010495784 0 0)
(4.5475753e-09 0.00096748704 0 -1.1654724e-05 0 0)
(4.5386624e-09 -0.00096748819 0 -1.1654729e-05 0 0)
(9.8878016e-10 -0.0029036764 0 -0.00010495779 0 0)
(-3.264445e-09 -0.0048421746 0 -0.00029193862 0 0)
(-2.5571502e-09 -0.0067803271 0 -0.0005726841 0 0)
(-2.6091285e-09 0.0067803285 0 -0.00057268449 0 0)
(-2.3736875e-09 0.0048421743 0 -0.00029193889 0 0)
(6.9317358e-10 0.0029036754 0 -0.0001049578 0 0)
(4.542068e-09 0.00096748649 0 -1.1654581e-05 0 0)
(4.5095598e-09 -0.00096748753 0 -1.1654599e-05 0 0)
(6.1281169e-10 -0.002903676 0 -0.00010495776 0 0)
(-2.5338816e-09 -0.0048421741 0 -0.00029193871 0 0)
(-2.7400639e-09 -0.0067803277 0 -0.00057268424 0 0)
(-2.2620609e-09 0.0067803293 0 -0.00057268462 0 0)
(-2.9143499e-09 0.004842174 0 -0.00029193896 0 0)
(1.0358133e-09 0.0029036742 0 -0.00010495773 0 0)
(4.2512085e-09 0.00096748617 0 -1.1654429e-05 0 0)
(4.2481986e-09 -0.00096748723 0 -1.1654436e-05 0 0)
(9.5172286e-10 -0.0029036746 0 -0.0001049577 0 0)
(-3.0576042e-09 -0.0048421737 0 -0.00029193881 0 0)
(-2.3717027e-09 -0.0067803285 0 -0.0005726844 0 0)
(-2.4668776e-09 0.0067803298 0 -0.00057268473 0 0)
(-2.213913e-09 0.0048421735 0 -0.00029193902 0 0)
(6.3355226e-10 0.0029036737 0 -0.00010495769 0 0)
(4.2557083e-09 0.00096748566 0 -1.1654298e-05 0 0)
(4.2271569e-09 -0.00096748666 0 -1.1654318e-05 0 0)
(5.7211151e-10 -0.0029036742 0 -0.00010495767 0 0)
(-2.3361446e-09 -0.0048421733 0 -0.00029193889 0 0)
(-2.5657074e-09 -0.006780329 0 -0.00057268453 0 0)
(-2.119005e-09 0.0067803305 0 -0.00057268486 0 0)
(-2.7536484e-09 0.0048421732 0 -0.0002919391 0 0)
(9.8227226e-10 0.0029036725 0 -0.00010495763 0 0)
(3.9714967e-09 0.00096748535 0 -1.1654153e-05 0 0)
(3.9674554e-09 -0.00096748634 0 -1.1654157e-05 0 0)
(9.0735121e-10 -0.0029036729 0 -0.00010495761 0 0)
(-2.8703948e-09 -0.004842173 0 -0.00029193897 0 0)
(-2.2024357e-09 -0.0067803297 0 -0.00057268467 0 0)
(-2.3263949e-09 0.006780331 0 -0.00057268495 0 0)
(-2.0520025e-09 0.0048421728 0 -0.00029193916 0 0)
(5.8488691e-10 0.0029036721 0 -0.00010495761 0 0)
(3.9838221e-09 0.00096748489 0 -1.1654031e-05 0 0)
(3.9531805e-09 -0.00096748585 0 -1.1654048e-05 0 0)
(5.2623763e-10 -0.0029036725 0 -0.00010495758 0 0)
(-2.1555238e-09 -0.0048421726 0 -0.00029193905 0 0)
(-2.4052292e-09 -0.0067803302 0 -0.00057268479 0 0)
(-1.9783795e-09 0.0067803317 0 -0.00057268508 0 0)
(-2.5923437e-09 0.0048421725 0 -0.00029193924 0 0)
(9.3749374e-10 0.002903671 0 -0.00010495756 0 0)
(3.7055794e-09 0.00096748459 0 -1.1653894e-05 0 0)
(3.696678e-09 -0.00096748551 0 -1.1653891e-05 0 0)
(8.5961513e-10 -0.0029036714 0 -0.00010495753 0 0)
(-2.6977855e-09 -0.0048421722 0 -0.00029193913 0 0)
(-2.0459782e-09 -0.0067803309 0 -0.00057268492 0 0)
(-2.188632e-09 0.0067803321 0 -0.00057268517 0 0)
(-1.8913379e-09 0.0048421721 0 -0.0002919393 0 0)
(5.432244e-10 0.0029036706 0 -0.00010495754 0 0)
(3.7246514e-09 0.00096748416 0 -1.1653781e-05 0 0)
(3.688762e-09 -0.0009674851 0 -1.1653791e-05 0 0)
(4.7853854e-10 -0.002903671 0 -0.0001049575 0 0)
(-1.9881548e-09 -0.0048421719 0 -0.0002919392 0 0)
(-2.2559856e-09 -0.0067803314 0 -0.00057268503 0 0)
(-1.8412076e-09 0.0067803327 0 -0.00057268529 0 0)
(-2.4336269e-09 0.0048421719 0 -0.00029193938 0 0)
(8.9808755e-10 0.0029036696 0 -0.00010495749 0 0)
(3.4521331e-09 0.00096748387 0 -1.165365e-05 0 0)
(3.4368827e-09 -0.00096748475 0 -1.1653638e-05 0 0)
(8.1126867e-10 -0.0029036699 0 -0.00010495746 0 0)
(-2.5367166e-09 -0.0048421716 0 -0.00029193928 0 0)
(-1.9000572e-09 -0.006780332 0 -0.00057268516 0 0)
(-2.0546292e-09 0.0067803331 0 -0.00057268538 0 0)
(-1.7347477e-09 0.0048421715 0 -0.00029193945 0 0)
(5.0571152e-10 0.0029036692 0 -0.00010495748 0 0)
(3.4773314e-09 0.00096748349 0 -1.1653544e-05 0 0)
(3.4350891e-09 -0.00096748439 0 -1.1653546e-05 0 0)
(4.3128222e-10 -0.0029036696 0 -0.00010495743 0 0)
(-1.8315122e-09 -0.0048421712 0 -0.00029193935 0 0)
(-2.1160806e-09 -0.0067803324 0 -0.00057268525 0 0)
(-1.7084342e-09 0.0067803337 0 -0.0005726855 0 0)
(-2.2798507e-09 0.0048421712 0 -0.00029193953 0 0)
(8.6169337e-10 0.0029036682 0 -0.00010495744 0 0)
(3.2104757e-09 0.00096748321 0 -1.1653419e-05 0 0)
(3.1889422e-09 -0.00096748404 0 -1.1653399e-05 0 0)
(7.6410544e-10 -0.0029036685 0 -0.00010495739 0 0)
(-2.3851521e-09 -0.004842171 0 -0.00029193942 0 0)
(-1.7629986e-09 -0.006780333 0 -0.00057268537 0 0)
(-1.9252263e-09 0.0067803341 0 -0.00057268558 0 0)
(-1.5840882e-09 0.0048421709 0 -0.00029193959 0 0)
(4.7045403e-10 0.0029036679 0 -0.00010495743 0 0)
(3.2414039e-09 0.00096748286 0 -1.165332e-05 0 0)
(3.1930186e-09 -0.00096748374 0 -1.1653315e-05 0 0)
(3.858691e-10 -0.0029036683 0 -0.00010495737 0 0)
(-1.6838895e-09 -0.0048421706 0 -0.00029193949 0 0)
(-1.9841296e-09 -0.0067803334 0 -0.00057268546 0 0)
(-1.5807774e-09 0.0067803346 0 -0.00057268569 0 0)
(-2.1324852e-09 0.0048421706 0 -0.00029193967 0 0)
(8.2681912e-10 0.002903667 0 -0.00010495739 0 0)
(2.9802411e-09 0.00096748259 0 -1.1653202e-05 0 0)
(2.9533916e-09 -0.00096748338 0 -1.1653175e-05 0 0)
(7.1917782e-10 -0.0029036673 0 -0.00010495733 0 0)
(-2.2417494e-09 -0.0048421704 0 -0.00029193956 0 0)
(-1.6335892e-09 -0.006780334 0 -0.00057268557 0 0)
(-1.8010215e-09 0.0067803349 0 -0.00057268576 0 0)
(-1.4405517e-09 0.0048421703 0 -0.00029193973 0 0)
(4.3632398e-10 0.0029036667 0 -0.00010495738 0 0)
(3.0166326e-09 0.00096748228 0 -1.1653109e-05 0 0)
(2.9630492e-09 -0.00096748312 0 -1.1653097e-05 0 0)
(3.4305894e-10 -0.002903667 0 -0.00010495731 0 0)
(-1.5441843e-09 -0.0048421701 0 -0.00029193962 0 0)
(-1.8591739e-09 -0.0067803343 0 -0.00057268566 0 0)
(-1.4587275e-09 0.0067803355 0 -0.00057268587 0 0)
(-1.992642e-09 0.0048421701 0 -0.0002919398 0 0)
(7.9264098e-10 0.0029036658 0 -0.00010495735 0 0)
(2.7612394e-09 0.00096748203 0 -1.1652996e-05 0 0)
(2.7304578e-09 -0.00096748278 0 -1.1652964e-05 0 0)
(6.7700931e-10 -0.0029036661 0 -0.00010495727 0 0)
(-2.1056804e-09 -0.0048421698 0 -0.00029193969 0 0)
(-1.5110052e-09 -0.0067803348 0 -0.00057268576 0 0)
(-1.682412e-09 0.0067803358 0 -0.00057268594 0 0)
(-1.3049971e-09 0.0048421698 0 -0.00029193986 0 0)
(4.0275304e-10 0.0029036656 0 -0.00010495734 0 0)
(2.8029037e-09 0.00096748175 0 -1.1652909e-05 0 0)
(2.7453871e-09 -0.00096748255 0 -1.1652892e-05 0 0)
(3.0317105e-10 -0.0029036659 0 -0.00010495726 0 0)
(-1.4117318e-09 -0.0048421696 0 -0.00029193975 0 0)
(-1.7405791e-09 -0.0067803351 0 -0.00057268584 0 0)
(-1.3425737e-09 0.0067803363 0 -0.00057268604 0 0)
(-1.8608311e-09 0.0048421696 0 -0.00029193993 0 0)
(7.5880254e-10 0.0029036648 0 -0.00010495731 0 0)
(2.5533722e-09 0.00096748151 0 -1.1652803e-05 0 0)
(2.5201383e-09 -0.00096748222 0 -1.1652766e-05 0 0)
(6.3777163e-10 -0.002903665 0 -0.00010495723 0 0)
(-1.9764764e-09 -0.0048421693 0 -0.00029193982 0 0)
(-1.3947141e-09 -0.0067803357 0 -0.00057268594 0 0)
(-1.5696393e-09 0.0067803365 0 -0.00057268611 0 0)
(-1.1776939e-09 0.0048421693 0 -0.00029193999 0 0)
(3.6954507e-10 0.0029036645 0 -0.0001049573 0 0)
(2.6001588e-09 0.00096748125 0 -1.1652721e-05 0 0)
(2.5400243e-09 -0.00096748202 0 -1.16527e-05 0 0)
(2.662455e-10 -0.0029036648 0 -0.00010495721 0 0)
(-1.2861591e-09 -0.0048421691 0 -0.00029193988 0 0)
(-1.6279456e-09 -0.0067803359 0 -0.00057268601 0 0)
(-1.2324452e-09 0.006780337 0 -0.0005726862 0 0)
(-1.7371617e-09 0.0048421691 0 -0.00029194006 0 0)
(7.2524475e-10 0.0029036638 0 -0.00010495727 0 0)
(2.3565708e-09 0.00096748103 0 -1.165262e-05 0 0)
(2.3222663e-09 -0.0009674817 0 -1.1652581e-05 0 0)
(6.0142211e-10 -0.002903664 0 -0.00010495718 0 0)
(-1.853893e-09 -0.0048421689 0 -0.00029193994 0 0)
(-1.2843858e-09 -0.0067803364 0 -0.0005726861 0 0)
(-1.4628245e-09 0.0067803372 0 -0.00057268626 0 0)
(-1.0586085e-09 0.0048421688 0 -0.00029194011 0 0)
(3.3672861e-10 0.0029036636 0 -0.00010495726 0 0)
(2.4083435e-09 0.0009674808 0 -1.1652544e-05 0 0)
(2.346798e-09 -0.00096748153 0 -1.165252e-05 0 0)
(2.3216123e-10 -0.0029036638 0 -0.00010495717 0 0)
(-1.1672673e-09 -0.0048421686 0 -0.00029194 0 0)
(-1.5210325e-09 -0.0067803367 0 -0.00057268617 0 0)
(-1.1283689e-09 0.0067803377 0 -0.00057268635 0 0)
(-1.6215339e-09 0.0048421687 0 -0.00029194017 0 0)
(6.9207808e-10 0.0029036628 0 -0.00010495724 0 0)
(2.1707535e-09 0.00096748059 0 -1.1652449e-05 0 0)
(2.1365638e-09 -0.00096748123 0 -1.1652408e-05 0 0)
(5.6780243e-10 -0.0029036631 0 -0.00010495715 0 0)
(-1.7378088e-09 -0.0048421684 0 -0.00029194006 0 0)
(-1.1798178e-09 -0.0067803371 0 -0.00057268626 0 0)
(-1.361984e-09 0.0067803378 0 -0.00057268641 0 0)
(-9.4754191e-10 0.0048421684 0 -0.00029194022 0 0)
(3.0445039e-10 0.0029036627 0 -0.00010495723 0 0)
(2.2273733e-09 0.00096748038 0 -1.1652377e-05 0 0)
(2.165439e-09 -0.00096748107 0 -1.1652351e-05 0 0)
(2.0071971e-10 -0.0029036629 0 -0.00010495714 0 0)
(-1.054943e-09 -0.0048421682 0 -0.00029194011 0 0)