/*--------------------------------*- C++ -*----------------------------------*\
| =========                 |                                                 |
| \\      /  F ield         | OpenFOAM: The Open Source CFD Toolbox           |
|  \\    /   O peration     | Version:  5.x                                   |
|   \\  /    A nd           | Web:      www.OpenFOAM.org                      |
|    \\/     M anipulation  |                                                 |
\*---------------------------------------------------------------------------*/
FoamFile
{
    version     2.0;
    format      ascii;
    class       volSymmTensorField;
    location    "6";
    object      sigma_0;
}
// * * * * * * * * * * * * * * * * * * * * * * * * * * * * * * * * * * * * * //

dimensions      [0 2 -2 0 0 0 0];

internalField   nonuniform List<symmTensor> 
1920
(
(0.0024804478 0.013843239 0 -0.0086591155 0 0)
(-0.00044186836 0.0052993646 0 0.0015806928 0 0)
(-0.0016655813 0.0033861098 0 0.0012660942 0 0)
(-0.001222588 0.0010734648 0 0.0012248994 0 0)
(-0.001222556 -0.0010734748 0 0.0012248671 0 0)
(-0.0016655927 -0.0033860624 0 0.0012661064 0 0)
(-0.00044187245 -0.0052993543 0 0.0015806974 0 0)
(0.0024804465 -0.013843239 0 -0.0086591118 0 0)
(0.0047293083 0.0095061875 0 -0.0046483386 0 0)
(0.00048837278 0.0018606824 0 0.00056039314 0 0)
(-0.0029417519 0.00063887806 0 0.0024806049 0 0)
(-0.0028974401 0.00036306835 0 0.0026457574 0 0)
(-0.0028974271 -0.00036307062 0 0.0026457411 0 0)
(-0.0029417683 -0.00063882252 0 0.0024806228 0 0)
(0.00048837518 -0.0018606795 0 0.00056038654 0 0)
(0.0047293083 -0.0095061904 0 -0.0046483389 0 0)
(0.0042048476 0.0081341949 0 -0.005531303 0 0)
(0.0010733083 0.0010452246 0 -0.0005930405 0 0)
(-0.002445018 0.00024616425 0 0.0021734823 0 0)
(-0.0030653192 8.1078366e-05 0 0.0029140078 0 0)
(-0.003065348 -8.1072255e-05 0 0.0029140406 0 0)
(-0.0024449853 -0.00024624007 0 0.0021734453 0 0)
(0.0010733141 -0.001045238 0 -0.00059304391 0 0)
(0.0042048494 -0.0081341955 0 -0.0055313072 0 0)
(0.0032582379 0.007577342 0 -0.0046074692 0 0)
(0.0012091441 0.0015239114 0 -0.0010313719 0 0)
(-0.0017832059 0.00029340664 0 0.0016661766 0 0)
(-0.00278362 1.9891665e-05 0 0.002736912 0 0)
(-0.0027835803 -1.9904055e-05 0 0.002736872 0 0)
(-0.0017832681 -0.0002933018 0 0.0016662385 0 0)
(0.0012091491 -0.001523904 0 -0.0010313778 0 0)
(0.0032582423 -0.007577342 0 -0.0046074735 0 0)
(0.0024412495 0.0072525285 0 -0.0034514619 0 0)
(0.0011033941 0.002134645 0 -0.0010718364 0 0)
(-0.0012519166 0.00067970341 0 0.0011732498 0 0)
(-0.0023667204 0.00010320141 0 0.0023360605 0 0)
(-0.0023668325 -0.0001032022 0 0.0023361753 0 0)
(-0.0012523903 -0.00067936699 0 0.0011737189 0 0)
(0.0011033901 -0.0021346414 0 -0.0010718319 0 0)
(0.0024412627 -0.0072525279 0 -0.0034514763 0 0)
(0.0018681114 0.0070379698 0 -0.0026697254 0 0)
(0.00092731385 0.0027530346 0 -0.00098703677 0 0)
(-0.00097055123 0.00096887576 0 0.00090438796 0 0)
(-0.0017157076 0.00025124972 0 0.001695642 0 0)
(-0.001715657 -0.00025127571 0 0.0016955878 0 0)
(-0.00096995588 -0.00096940694 0 0.00090379642 0 0)
(0.00092734714 -0.0027530268 0 -0.00098707049 0 0)
(0.0018681131 -0.0070379627 0 -0.0026697257 0 0)
(0.0012726051 0.0068155667 0 -0.0019664238 0 0)
(0.00070825588 0.0033332197 0 -0.00083883232 0 0)
(-0.00059839576 0.0014300864 0 0.00053798955 0 0)
(-0.0013164101 0.00038054449 0 0.0013062295 0 0)
(-0.001316374 -0.00038056183 0 0.0013061942 0 0)
(-0.000598345 -0.001430114 0 0.00053793786 0 0)
(0.00070827616 -0.003333208 0 -0.00083885141 0 0)
(0.0012726066 -0.0068155536 0 -0.0019664248 0 0)
(0.00089242028 0.006676048 0 -0.0015318291 0 0)
(0.00055472513 0.0036518189 0 -0.0007296505 0 0)
(-0.00037948688 0.0017819645 0 0.00031716498 0 0)
(-0.00097898559 0.00049938607 0 0.00097503758 0 0)
(-0.00097905212 -0.00049936862 0 0.00097510304 0 0)
(-0.00037949722 -0.0017819253 0 0.00031717539 0 0)
(0.00055472581 -0.0036518405 0 -0.00072965313 0 0)
(0.00089241905 -0.0066760353 0 -0.0015318265 0 0)
(0.00061474406 0.0065803649 0 -0.0012203093 0 0)
(0.00039908641 0.0039496996 0 -0.0006089306 0 0)
(-0.00025024515 0.0020334943 0 0.00018131622 0 0)
(-0.00071905867 0.0005971771 0 0.00071661144 0 0)
(-0.00071894238 -0.00059722584 0 0.00071649735 0 0)
(-0.0002502024 -0.0020335426 0 0.0001812736 0 0)
(0.00039911721 -0.003949664 0 -0.0006089609 0 0)
(0.0006147598 -0.0065803507 0 -0.0012203243 0 0)
(0.00041393039 0.006513579 0 -0.00099870403 0 0)
(0.00028876987 0.0041392909 0 -0.00052279694 0 0)
(-0.00015972939 0.0022361785 0 8.2974835e-05 0 0)
(-0.00049511788 0.00068642113 0 0.00049195067 0 0)
(-0.00049526599 -0.00068636741 0 0.00049209779 0 0)
(-0.00015974436 -0.0022361245 0 8.2990787e-05 0 0)
(0.00028876684 -0.0041393038 0 -0.00052279438 0 0)
(0.0004139272 -0.0065135595 0 -0.00099869898 0 0)
(0.00027196167 0.0064682314 0 -0.0008443624 0 0)
(0.00020510611 0.0042740481 0 -0.00045611141 0 0)
(-9.9644683e-05 0.0023885663 0 1.6013117e-05 0 0)
(-0.0003359313 0.00075317526 0 0.00033116084 0 0)
(-0.00033581503 -0.0007532344 0 0.00033104437 0 0)
(-9.9613636e-05 -0.0023886194 0 1.598103e-05 0 0)
(0.0002051289 -0.0042740126 0 -0.00045613302 0 0)
(0.00027197681 -0.0064682133 0 -0.00084437573 0 0)
(0.0001752971 0.0064383772 0 -0.00074046649 0 0)
(0.00014129337 0.004371268 0 -0.00040391018 0 0)
(-6.0861429e-05 0.0024989628 0 -2.8219964e-05 0 0)
(-0.00022494486 0.0008016795 0 0.00021851696 0 0)
(-0.00022494169 -0.00080168566 0 0.00021851404 0 0)
(-6.0875581e-05 -0.0024989175 0 -2.8205064e-05 0 0)
(0.00014128581 -0.0043712741 0 -0.00040390275 0 0)
(0.00017529248 -0.006438354 0 -0.00074045974 0 0)
(0.00011121154 0.0064191453 0 -0.00067219288 0 0)
(9.5014941e-05 0.0044381074 0 -0.0003653168 0 0)
(-3.6407585e-05 0.0025765775 0 -5.6762157e-05 0 0)
(-0.00014776686 0.00083676331 0 0.00013991334 0 0)
(-0.00014788357 -0.00083673011 0 0.00014002951 0 0)
(-3.6394413e-05 -0.0025766186 0 -5.6776263e-05 0 0)
(9.502774e-05 -0.0044380777 0 -0.00036532837 0 0)
(0.00011122105 -0.0064191243 0 -0.0006721998 0 0)
(6.9314321e-05 0.006406913 0 -0.00062789693 0 0)
(6.2654722e-05 0.0044825675 0 -0.00033793601 0 0)
(-2.1227147e-05 0.0026300559 0 -7.4876408e-05 0 0)
(-9.5673566e-05 0.0008611317 0 8.67207e-05 0 0)
(-9.5378204e-05 -0.00086126771 0 8.6424552e-05 0 0)
(-2.1239822e-05 -0.0026300283 0 -7.4863409e-05 0 0)
(6.2643831e-05 -0.004482569 0 -0.00033792464 0 0)
(6.9310446e-05 -0.0064068899 0 -0.0006278907 0 0)
(4.2337282e-05 0.0063992567 0 -0.0005995771 0 0)
(4.0542628e-05 0.0045116047 0 -0.00031899102 0 0)
(-1.2010943e-05 0.0026661273 0 -8.6123794e-05 0 0)
(-6.1070091e-05 0.00087778978 0 5.1321617e-05 0 0)
(-6.1530857e-05 -0.00087760892 0 5.1783484e-05 0 0)
(-1.2010349e-05 -0.0026661554 0 -8.6125108e-05 0 0)
(4.0545842e-05 -0.0045115845 0 -0.00031899319 0 0)
(4.2341183e-05 -0.0063992357 0 -0.00059957815 0 0)
(2.5277156e-05 0.0063945666 0 -0.00058179042 0 0)
(2.574298e-05 0.0045302082 0 -0.00030617156 0 0)
(-6.5022258e-06 0.0026901266 0 -9.2996755e-05 0 0)
(-3.7762684e-05 0.00088926138 0 2.7457841e-05 0 0)
(-3.7044641e-05 -0.00088959644 0 2.6736494e-05 0 0)
(-6.5131164e-06 -0.0026901158 0 -9.2985964e-05 0 0)
(2.5732086e-05 -0.0045302064 0 -0.0003061599 0 0)
(2.5273223e-05 -0.0063945454 0 -0.00058178407 0 0)
(1.4665077e-05 0.0063917585 0 -0.00057080605 0 0)
(1.5998949e-05 0.0045419616 0 -0.00029764291 0 0)
(-3.3189294e-06 0.0027057339 0 -9.7071605e-05 0 0)
(-2.3205359e-05 0.00089663369 0 1.253068e-05 0 0)
(-2.3738329e-05 -0.00089641244 0 1.3065676e-05 0 0)
(-3.3243895e-06 -0.0027057518 0 -9.7066734e-05 0 0)
(1.5995904e-05 -0.00454195 0 -0.00029763907 0 0)
(1.4664826e-05 -0.0063917392 0 -0.00057080306 0 0)
(8.2155328e-06 0.0063901325 0 -0.00056418123 0 0)
(9.7222832e-06 0.0045492128 0 -0.00029209667 0 0)
(-1.522942e-06 0.0027157674 0 -9.9436546e-05 0 0)
(-1.4020703e-05 0.00090139258 0 3.1042776e-06 0 0)
(-1.3795078e-05 -0.00090151688 0 2.877102e-06 0 0)
(-1.5315942e-06 -0.0027157682 0 -9.9428274e-05 0 0)
(9.7132415e-06 -0.0045492095 0 -0.00029208688 0 0)
(8.2118091e-06 -0.0063901141 0 -0.00056417521 0 0)
(4.3699812e-06 0.0063892269 0 -0.00056026704 0 0)
(5.7355485e-06 0.004553624 0 -0.00028854002 0 0)
(-5.6497833e-07 0.0027220466 0 -0.0001007474 0 0)
(-8.0585064e-06 0.0009045437 0 -3.0125593e-06 0 0)
(-8.2195829e-06 -0.00090448576 0 -2.8510432e-06 0 0)
(-5.7189644e-07 -0.0027220573 0 -0.00010074099 0 0)
(5.7297669e-06 -0.0045536182 0 -0.00028853368 0 0)
(4.367438e-06 -0.00638921 0 -0.00056026211 0 0)
(2.1903155e-06 0.0063887607 0 -0.00055807262 0 0)
(3.2718748e-06 0.0045562198 0 -0.00028632142 0 0)
(-8.1387679e-08 0.0027259286 0 -0.00010144497 0 0)
(-4.4395507e-06 0.00090650627 0 -6.7275701e-06 0 0)
(-4.3135802e-06 -0.00090658564 0 -6.8545488e-06 0 0)
(-8.7784219e-08 -0.0027259355 0 -0.00010143913 0 0)
(3.2653166e-06 -0.004556216 0 -0.00028631425 0 0)
(2.1875567e-06 -0.006388745 0 -0.00055806782 0 0)
(9.3472347e-07 0.0063885331 0 -0.00055682679 0 0)
(1.7714495e-06 0.0045577181 0 -0.00028495721 0 0)
(1.3322008e-07 0.0027282484 0 -0.00010178419 0 0)
(-2.1797831e-06 0.00090776236 0 -9.0457839e-06 0 0)
(-2.3913076e-06 -0.00090767185 0 -8.8331545e-06 0 0)
(1.27128e-07 -0.0027282549 0 -0.00010177858 0 0)
(1.7652228e-06 -0.0045577152 0 -0.0002849506 0 0)
(9.3152553e-07 -0.0063885184 0 -0.00055682158 0 0)
(2.7849779e-07 0.0063884472 0 -0.00055618924 0 0)
(8.9425846e-07 0.0045585367 0 -0.00028415097 0 0)
(2.0701423e-07 0.0027296065 0 -0.00010192858 0 0)
(-1.0697926e-06 0.00090841282 0 -1.0188257e-05 0 0)
(-9.0093062e-07 -0.00090851857 0 -1.0358872e-05 0 0)
(2.021292e-07 -0.0027296149 0 -0.00010192427 0 0)
(8.8975539e-07 -0.004558533 0 -0.00028414601 0 0)
(2.760765e-07 -0.0063884336 0 -0.00055618506 0 0)
(-3.6642927e-08 0.0063884382 0 -0.00055589449 0 0)
(3.9158751e-07 0.0045589638 0 -0.00028368413 0 0)
(2.1126014e-07 0.0027303647 0 -0.00010196983 0 0)
(-2.8335106e-07 0.00090888302 0 -1.0994241e-05 0 0)
(-3.0732066e-07 -0.00090888497 0 -1.0970305e-05 0 0)
(2.0651055e-07 -0.0027303692 0 -0.00010196555 0 0)
(3.859762e-07 -0.0045589618 0 -0.00028367824 0 0)
(-3.9541342e-08 -0.0063884255 0 -0.00055588994 0 0)
(-1.7518933e-07 0.0063884645 0 -0.00055577421 0 0)
(1.2236733e-07 0.0045591637 0 -0.00028342931 0 0)
(1.8506191e-07 0.0027307675 0 -0.00010196217 0 0)
(8.736091e-09 0.00090907863 0 -1.1295583e-05 0 0)
(-5.2452372e-08 -0.00090905699 0 -1.1234318e-05 0 0)
(1.8094083e-07 -0.0027307751 0 -0.00010195855 0 0)
(1.1902298e-07 -0.0045591603 0 -0.00028342564 0 0)
(-1.7754025e-07 -0.0063884527 0 -0.00055577037 0 0)
(-2.1026525e-07 0.0063884998 0 -0.00055575437 0 0)
(-1.1757743e-08 0.0045592447 0 -0.0002832998 0 0)
(1.5052171e-07 0.0027309636 0 -0.00010193468 0 0)
(1.2501108e-07 0.0009091663 0 -1.1416299e-05 0 0)
(1.1693786e-07 -0.00090917377 0 -1.140843e-05 0 0)
(1.4686994e-07 -0.0027309678 0 -0.00010193143 0 0)
(-1.6322783e-08 -0.0045592426 0 -0.00028329498 0 0)
(-2.1267014e-07 -0.0063884886 0 -0.00055575062 0 0)
(-1.9818284e-07 0.0063885378 0 -0.00055577866 0 0)
(-8.0113253e-08 0.004559267 0 -0.00028323004 0 0)
(1.1816506e-07 0.0027310429 0 -0.00010190419 0 0)
(1.7267099e-07 0.00090921317 0 -1.1465797e-05 0 0)
(1.6068404e-07 -0.00090921458 0 -1.1453984e-05 0 0)
(1.1427205e-07 -0.0027310486 0 -0.0001019007 0 0)
(-8.3459292e-08 -0.0045592646 0 -0.00028322644 0 0)
(-2.0078396e-07 -0.0063885269 0 -0.00055577473 0 0)
(-1.6934992e-07 0.0063885671 0 -0.00055581637 0 0)
(-9.2188448e-08 0.0045592531 0 -0.00028321576 0 0)
(8.684144e-08 0.002731067 0 -0.00010187151 0 0)
(1.7326833e-07 0.00090922376 0 -1.1466848e-05 0 0)
(1.742874e-07 -0.00090923433 0 -1.146813e-05 0 0)
(8.32635e-08 -0.0027310714 0 -0.0001018683 0 0)
(-9.6717944e-08 -0.0045592505 0 -0.00028321089 0 0)
(-1.7095515e-07 -0.0063885578 0 -0.00055581372 0 0)
(-1.3396229e-07 0.0063885942 0 -0.00055585806 0 0)
(-9.078319e-08 0.0045592251 0 -0.00028321483 0 0)
(6.2953531e-08 0.0027310538 0 -0.00010184569 0 0)
(1.5688313e-07 0.00090922786 0 -1.1450287e-05 0 0)
(1.5722467e-07 -0.00090923574 0 -1.145088e-05 0 0)
(5.9349521e-08 -0.0027310585 0 -0.00010184237 0 0)
(-9.4257586e-08 -0.004559223 0 -0.00028321113 0 0)
(-1.3573448e-07 -0.0063885853 0 -0.00055585524 0 0)
(-1.0402864e-07 0.0063886132 0 -0.00055589283 0 0)
(-7.6071914e-08 0.0045592002 0 -0.00028322615 0 0)
(4.444599e-08 0.0027310297 0 -0.00010182495 0 0)
(1.3652455e-07 0.00090921925 0 -1.1429463e-05 0 0)
(1.3418212e-07 -0.00090922826 0 -1.1427278e-05 0 0)
(4.0942218e-08 -0.0027310334 0 -0.00010182173 0 0)
(-7.9948377e-08 -0.0045591988 0 -0.000283222 0 0)
(-1.0597191e-07 -0.0063886045 0 -0.00055588993 0 0)
(-7.9685825e-08 0.0063886286 0 -0.00055592033 0 0)
(-6.4159377e-08 0.0045591788 0 -0.00028323567 0 0)
(2.993857e-08 0.0027310009 0 -0.00010180838 0 0)
(1.0613951e-07 0.00090920977 0 -1.139845e-05 0 0)
(1.0522489e-07 -0.00090921712 0 -1.1397734e-05 0 0)
(2.7086821e-08 -0.0027310057 0 -0.00010180579 0 0)
(-6.7486912e-08 -0.0045591769 0 -0.00028323216 0 0)
(-8.1383773e-08 -0.0063886209 0 -0.00055591774 0 0)
(-5.8075309e-08 0.0063886404 0 -0.0005559444 0 0)
(-4.9604169e-08 0.004559159 0 -0.00028324812 0 0)
(2.1547753e-08 0.0027309755 0 -0.00010179838 0 0)
(8.911738e-08 0.00090920173 0 -1.138095e-05 0 0)
(8.5352305e-08 -0.00090920768 0 -1.137731e-05 0 0)
(1.8227213e-08 -0.0027309785 0 -0.00010179531 0 0)
(-5.3196956e-08 -0.0045591575 0 -0.00028324429 0 0)
(-5.9842459e-08 -0.006388633 0 -0.00055594183 0 0)
(-4.3691872e-08 0.0063886495 0 -0.00055596024 0 0)
(-3.9929043e-08 0.0045591444 0 -0.00028325637 0 0)
(1.5454677e-08 0.0027309563 0 -0.00010179079 0 0)
(6.4574314e-08 0.00090919029 0 -1.1355886e-05 0 0)
(6.2898023e-08 -0.0009091964 0 -1.1354366e-05 0 0)
(1.2216549e-08 -0.0027309596 0 -0.00010178776 0 0)
(-4.3132492e-08 -0.004559143 0 -0.000283253 0 0)
(-4.5301728e-08 -0.006388643 0 -0.00055595788 0 0)
(-3.1505777e-08 0.006388656 0 -0.00055597368 0 0)
(-2.9766708e-08 0.0045591318 0 -0.00028326536 0 0)
(1.2381496e-08 0.0027309397 0 -0.00010178655 0 0)
(5.0989828e-08 0.00090918394 0 -1.1341973e-05 0 0)
(4.9615187e-08 -0.00090918931 0 -1.1340726e-05 0 0)
(9.4011324e-09 -0.0027309425 0 -0.00010178376 0 0)
(-3.3028993e-08 -0.0045591305 0 -0.00028326187 0 0)
(-3.3151616e-08 -0.0063886498 0 -0.00055597136 0 0)
(-2.3589684e-08 0.0063886614 0 -0.00055598218 0 0)
(-2.3835426e-08 0.0045591231 0 -0.00028327067 0 0)
(8.7142714e-09 0.0027309266 0 -0.00010178209 0 0)
(3.702561e-08 0.00090917605 0 -1.1327709e-05 0 0)
(3.5574742e-08 -0.00090918075 0 -1.1326371e-05 0 0)
(5.7702492e-09 -0.0027309293 0 -0.00010177931 0 0)
(-2.6778257e-08 -0.0045591222 0 -0.00028326757 0 0)
(-2.5085438e-08 -0.0063886561 0 -0.00055598006 0 0)
(-1.7743158e-08 0.0063886652 0 -0.00055598876 0 0)
(-1.7932635e-08 0.0045591158 0 -0.00028327586 0 0)
(6.9017506e-09 0.0027309156 0 -0.00010177966 0 0)
(2.9770454e-08 0.00090917269 0 -1.1320278e-05 0 0)
(2.9122171e-08 -0.00090917735 0 -1.1319746e-05 0 0)
(4.3299734e-09 -0.002730918 0 -0.00010177723 0 0)
(-2.080502e-08 -0.0045591149 0 -0.00028327279 0 0)
(-1.9244528e-08 -0.0063886601 0 -0.0005559867 0 0)
(-1.3455497e-08 0.0063886685 0 -0.00055599322 0 0)
(-1.4576605e-08 0.0045591108 0 -0.00028327901 0 0)
(5.3289373e-09 0.0027309075 0 -0.00010177763 0 0)
(2.323414e-08 0.0009091682 0 -1.1313601e-05 0 0)
(2.1977775e-08 -0.00090917176 0 -1.1312426e-05 0 0)
(2.8377331e-09 -0.0027309099 0 -0.00010177527 0 0)
(-1.7193785e-08 -0.0045591101 0 -0.00028327624 0 0)
(-1.4829233e-08 -0.0063886641 0 -0.00055599133 0 0)
(-1.103438e-08 0.006388671 0 -0.00055599616 0 0)
(-1.1559872e-08 0.0045591067 0 -0.00028328155 0 0)
(4.3103636e-09 0.0027309006 0 -0.0001017763 0 0)
(1.9583243e-08 0.0009091662 0 -1.1309854e-05 0 0)
(1.9047387e-08 -0.00090917038 0 -1.1309421e-05 0 0)
(2.1429008e-09 -0.0027309028 0 -0.00010177423 0 0)
(-1.4009158e-08 -0.0045591061 0 -0.00028327894 0 0)
(-1.2370271e-08 -0.006388667 0 -0.00055599436 0 0)
(-8.7935445e-09 0.0063886733 0 -0.0005559984 0 0)
(-9.8724321e-09 0.0045591036 0 -0.00028328321 0 0)
(3.6980202e-09 0.0027308953 0 -0.00010177538 0 0)
(1.6607489e-08 0.00090916368 0 -1.1306818e-05 0 0)
(1.5851727e-08 -0.00090916709 0 -1.1306131e-05 0 0)
(1.6623608e-09 -0.0027308975 0 -0.00010177346 0 0)
(-1.2089186e-08 -0.0045591032 0 -0.00028328086 0 0)
(-9.9937259e-09 -0.0063886698 0 -0.00055599677 0 0)
(-7.9078039e-09 0.0063886752 0 -0.0005559997 0 0)
(-8.4121481e-09 0.0045591013 0 -0.00028328432 0 0)
(3.1547319e-09 0.0027308906 0 -0.00010177466 0 0)
(1.4835864e-08 0.00090916221 0 -1.1304991e-05 0 0)
(1.4406798e-08 -0.00090916601 0 -1.1304652e-05 0 0)
(1.397706e-09 -0.0027308926 0 -0.000101773 0 0)
(-1.0419694e-08 -0.0045591009 0 -0.00028328218 0 0)
(-9.0440404e-09 -0.006388672 0 -0.00055599819 0 0)
(-6.7469839e-09 0.0063886769 0 -0.00055600078 0 0)
(-7.6923491e-09 0.0045590994 0 -0.00028328509 0 0)
(2.9096363e-09 0.0027308873 0 -0.00010177422 0 0)
(1.337204e-08 0.00090916048 0 -1.1303502e-05 0 0)
(1.2840948e-08 -0.00090916348 0 -1.1303028e-05 0 0)
(1.3130028e-09 -0.0027308892 0 -0.00010177273 0 0)
(-9.4821497e-09 -0.0045590992 0 -0.00028328319 0 0)
(-7.7446775e-09 -0.0063886742 0 -0.00055599944 0 0)
(-6.4719731e-09 0.0063886787 0 -0.00055600144 0 0)
(-6.9531123e-09 0.004559098 0 -0.00028328555 0 0)
(2.5995091e-09 0.0027308837 0 -0.0001017738 0 0)
(1.2469408e-08 0.00090915933 0 -1.1302565e-05 0 0)
(1.2095055e-08 -0.00090916255 0 -1.1302267e-05 0 0)
(1.2441141e-09 -0.0027308853 0 -0.00010177252 0 0)
(-8.5301604e-09 -0.0045590977 0 -0.00028328387 0 0)
(-7.395173e-09 -0.0063886761 0 -0.00055600021 0 0)
(-5.8065161e-09 0.0063886801 0 -0.00055600199 0 0)
(-6.7042405e-09 0.0045590967 0 -0.00028328588 0 0)
(2.466268e-09 0.0027308815 0 -0.00010177354 0 0)
(1.1685897e-08 0.00090915793 0 -1.130177e-05 0 0)
(1.129187e-08 -0.00090916049 0 -1.1301425e-05 0 0)
(1.2717768e-09 -0.0027308831 0 -0.00010177243 0 0)
(-8.0879902e-09 -0.0045590965 0 -0.00028328442 0 0)
(-6.601736e-09 -0.0063886779 0 -0.00055600091 0 0)
(-5.7777766e-09 0.0063886817 0 -0.00055600238 0 0)
(-6.2675885e-09 0.0045590956 0 -0.00028328609 0 0)
(2.2556415e-09 0.0027308785 0 -0.00010177325 0 0)
(1.1163368e-08 0.00090915697 0 -1.1301223e-05 0 0)
(1.0857972e-08 -0.00090915964 0 -1.1300984e-05 0 0)
(1.2626795e-09 -0.0027308798 0 -0.00010177232 0 0)
(-7.4544417e-09 -0.0045590954 0 -0.00028328482 0 0)
(-6.4987406e-09 -0.0063886797 0 -0.0005560014 0 0)
(-5.3230311e-09 0.0063886831 0 -0.0005560027 0 0)
(-6.2183463e-09 0.0045590945 0 -0.00028328624 0 0)
(2.1623048e-09 0.0027308767 0 -0.00010177305 0 0)
(1.0685997e-08 0.00090915574 0 -1.1300741e-05 0 0)
(1.0404703e-08 -0.00090915788 0 -1.1300502e-05 0 0)
(1.310501e-09 -0.0027308781 0 -0.00010177228 0 0)
(-7.243513e-09 -0.0045590944 0 -0.00028328515 0 0)
(-5.9315418e-09 -0.0063886813 0 -0.00055600186 0 0)
(-5.3906761e-09 0.0063886846 0 -0.00055600298 0 0)
(-5.9023181e-09 0.0045590936 0 -0.00028328635 0 0)
(1.9990702e-09 0.0027308741 0 -0.00010177283 0 0)
(1.0325878e-08 0.00090915489 0 -1.1300363e-05 0 0)
(1.009918e-08 -0.00090915711 0 -1.1300193e-05 0 0)
(1.3078854e-09 -0.0027308752 0 -0.0001017722 0 0)
(-6.7590155e-09 -0.0045590934 0 -0.00028328543 0 0)
(-5.9333418e-09 -0.006388683 0 -0.00055600223 0 0)
(-5.0212453e-09 0.0063886859 0 -0.00055600321 0 0)
(-5.9252534e-09 0.0045590927 0 -0.00028328643 0 0)
(1.9281149e-09 0.0027308726 0 -0.00010177268 0 0)
(9.9855793e-09 0.00090915374 0 -1.130002e-05 0 0)
(9.798873e-09 -0.00090915555 0 -1.1299871e-05 0 0)
(1.3490864e-09 -0.0027308737 0 -0.00010177217 0 0)
(-6.6536757e-09 -0.0045590925 0 -0.00028328566 0 0)
(-5.468805e-09 -0.0063886844 0 -0.00055600257 0 0)
(-5.1224024e-09 0.0063886874 0 -0.00055600344 0 0)
(-5.6535348e-09 0.0045590919 0 -0.00028328651 0 0)
(1.7941011e-09 0.0027308701 0 -0.0001017725 0 0)
(9.6953815e-09 0.00090915294 0 -1.1299716e-05 0 0)
(9.5406097e-09 -0.00090915482 0 -1.1299612e-05 0 0)
(1.3375139e-09 -0.002730871 0 -0.0001017721 0 0)
(-6.2473921e-09 -0.0045590917 0 -0.00028328587 0 0)
(-5.5168507e-09 -0.006388686 0 -0.00055600288 0 0)
(-4.7864282e-09 0.0063886886 0 -0.00055600364 0 0)
(-5.6941686e-09 0.0045590911 0 -0.00028328658 0 0)
(1.7402311e-09 0.0027308687 0 -0.00010177237 0 0)
(9.4184974e-09 0.00090915185 0 -1.1299438e-05 0 0)
(9.305412e-09 -0.00090915343 0 -1.1299358e-05 0 0)
(1.3654083e-09 -0.0027308696 0 -0.00010177206 0 0)
(-6.1917164e-09 -0.0045590909 0 -0.00028328605 0 0)
(-5.1033414e-09 -0.0063886873 0 -0.00055600316 0 0)
(-4.8958119e-09 0.00638869 0 -0.00055600385 0 0)
(-5.4355181e-09 0.0045590903 0 -0.00028328666 0 0)
(1.6281998e-09 0.0027308664 0 -0.00010177222 0 0)
(9.1603625e-09 0.00090915108 0 -1.129917e-05 0 0)
(9.0617971e-09 -0.00090915271 0 -1.1299116e-05 0 0)
(1.342652e-09 -0.0027308671 0 -0.00010177199 0 0)
(-5.8312486e-09 -0.0045590901 0 -0.00028328623 0 0)
(-5.1735867e-09 -0.0063886888 0 -0.00055600343 0 0)
(-4.5731338e-09 0.0063886912 0 -0.00055600403 0 0)
(-5.4732379e-09 0.0045590895 0 -0.00028328673 0 0)
(1.5884225e-09 0.002730865 0 -0.00010177212 0 0)
(8.9156662e-09 0.00090915005 0 -1.1298925e-05 0 0)
(8.8550805e-09 -0.00090915147 0 -1.1298895e-05 0 0)
(1.3573963e-09 -0.0027308658 0 -0.00010177195 0 0)
(-5.8011187e-09 -0.0045590893 0 -0.00028328639 0 0)
(-4.7898063e-09 -0.0063886901 0 -0.00055600368 0 0)
(-4.6813436e-09 0.0063886926 0 -0.00055600424 0 0)
(-5.2166363e-09 0.0045590888 0 -0.00028328682 0 0)
(1.4941468e-09 0.0027308628 0 -0.00010177199 0 0)
(8.6743803e-09 0.0009091493 0 -1.1298677e-05 0 0)
(8.6146133e-09 -0.00090915074 0 -1.1298658e-05 0 0)
(1.3252004e-09 -0.0027308635 0 -0.00010177188 0 0)
(-5.4712167e-09 -0.0045590886 0 -0.00028328654 0 0)
(-4.872121e-09 -0.0063886915 0 -0.00055600393 0 0)
(-4.364823e-09 0.0063886937 0 -0.00055600441 0 0)
(-5.2453675e-09 0.0045590881 0 -0.0002832869 0 0)
(1.4655837e-09 0.0027308616 0 -0.00010177191 0 0)
(8.4485992e-09 0.00090914832 0 -1.1298452e-05 0 0)
(8.4220084e-09 -0.00090914963 0 -1.1298454e-05 0 0)
(1.3288206e-09 -0.0027308622 0 -0.00010177183 0 0)
(-5.4558546e-09 -0.0045590878 0 -0.00028328668 0 0)
(-4.5087851e-09 -0.0063886926 0 -0.00055600415 0 0)
(-4.4689618e-09 0.006388695 0 -0.00055600461 0 0)
(-4.9883969e-09 0.0045590874 0 -0.000283287 0 0)
(1.3856322e-09 0.0027308595 0 -0.0001017718 0 0)
(8.2179259e-09 0.00090914758 0 -1.1298217e-05 0 0)
(8.1817554e-09 -0.0009091489 0 -1.1298218e-05 0 0)
(1.2898218e-09 -0.00273086 0 -0.00010177175 0 0)
(-5.1488304e-09 -0.0045590871 0 -0.00028328682 0 0)
(-4.5984307e-09 -0.006388694 0 -0.00055600438 0 0)
(-4.1565181e-09 0.0063886961 0 -0.00055600478 0 0)
(-5.0078002e-09 0.0045590867 0 -0.00028328709 0 0)
(1.3653108e-09 0.0027308583 0 -0.00010177173 0 0)
(8.0051382e-09 0.00090914666 0 -1.1298007e-05 0 0)
(7.9979226e-09 -0.0009091479 0 -1.1298025e-05 0 0)
(1.2848216e-09 -0.0027308588 0 -0.0001017717 0 0)
(-5.1426414e-09 -0.0045590864 0 -0.00028328695 0 0)
(-4.2508533e-09 -0.0063886951 0 -0.00055600458 0 0)
(-4.2562745e-09 0.0063886974 0 -0.00055600497 0 0)
(-4.7512159e-09 0.0045590861 0 -0.00028328719 0 0)
(1.2965972e-09 0.0027308563 0 -0.00010177164 0 0)
(7.7823389e-09 0.00090914594 0 -1.1297782e-05 0 0)
(7.7581203e-09 -0.00090914717 0 -1.1297792e-05 0 0)
(1.2415413e-09 -0.0027308568 0 -0.00010177163 0 0)
(-4.8535576e-09 -0.0045590858 0 -0.00028328708 0 0)
(-4.3451951e-09 -0.0063886964 0 -0.0005560048 0 0)
(-3.9476587e-09 0.0063886983 0 -0.00055600514 0 0)
(-4.7629176e-09 0.0045590855 0 -0.00028328729 0 0)
(1.281786e-09 0.0027308551 0 -0.00010177158 0 0)
(7.5796472e-09 0.00090914507 0 -1.1297583e-05 0 0)
(7.5811696e-09 -0.00090914627 0 -1.1297608e-05 0 0)
(1.2301988e-09 -0.0027308556 0 -0.00010177158 0 0)
(-4.8532155e-09 -0.0045590851 0 -0.0002832872 0 0)
(-4.0105075e-09 -0.0063886974 0 -0.00055600498 0 0)
(-4.043647e-09 0.0063886996 0 -0.00055600532 0 0)
(-4.5084018e-09 0.0045590849 0 -0.0002832874 0 0)
(1.2216929e-09 0.0027308532 0 -0.0001017715 0 0)
(7.3634045e-09 0.00090914438 0 -1.1297366e-05 0 0)
(7.3430642e-09 -0.00090914554 0 -1.1297378e-05 0 0)
(1.1847086e-09 -0.0027308537 0 -0.0001017715 0 0)
(-4.5788835e-09 -0.0045590845 0 -0.00028328733 0 0)
(-4.107885e-09 -0.0063886986 0 -0.00055600518 0 0)
(-3.739233e-09 0.0063887005 0 -0.00055600548 0 0)
(-4.5144862e-09 0.0045590842 0 -0.0002832875 0 0)
(1.2101445e-09 0.0027308521 0 -0.00010177145 0 0)
(7.1692469e-09 0.00090914357 0 -1.1297177e-05 0 0)
(7.172358e-09 -0.00090914474 0 -1.1297203e-05 0 0)
(1.1689193e-09 -0.0027308526 0 -0.00010177146 0 0)
(-4.5823181e-09 -0.0045590839 0 -0.00028328744 0 0)
(-3.7840724e-09 -0.0063886996 0 -0.00055600536 0 0)
(-3.8323431e-09 0.0063887017 0 -0.00055600567 0 0)
(-4.2637477e-09 0.0045590837 0 -0.00028328762 0 0)
(1.1565761e-09 0.0027308503 0 -0.00010177138 0 0)
(6.9589181e-09 0.0009091429 0 -1.1296968e-05 0 0)
(6.9373828e-09 -0.00090914401 0 -1.1296976e-05 0 0)
(1.1228297e-09 -0.0027308508 0 -0.00010177138 0 0)
(-4.3204207e-09 -0.0045590833 0 -0.00028328756 0 0)
(-3.8833641e-09 -0.0063887007 0 -0.00055600555 0 0)
(-3.5326514e-09 0.0063887025 0 -0.00055600582 0 0)
(-4.2661426e-09 0.0045590831 0 -0.00028328772 0 0)
(1.1465962e-09 0.0027308493 0 -0.00010177133 0 0)
(6.7724084e-09 0.00090914214 0 -1.1296787e-05 0 0)
(6.7727271e-09 -0.00090914329 0 -1.1296809e-05 0 0)
(1.1041077e-09 -0.0027308498 0 -0.00010177134 0 0)
(-4.3262433e-09 -0.0045590827 0 -0.00028328767 0 0)
(-3.5689149e-09 -0.0063887016 0 -0.00055600571 0 0)
(-3.6237964e-09 0.0063887037 0 -0.000556006 0 0)
(-4.0205209e-09 0.0045590825 0 -0.00028328784 0 0)
(1.097962e-09 0.0027308476 0 -0.00010177127 0 0)
(6.5677408e-09 0.00090914149 0 -1.1296585e-05 0 0)
(6.5422122e-09 -0.00090914258 0 -1.1296588e-05 0 0)
(1.0585937e-09 -0.002730848 0 -0.00010177127 0 0)
(-4.0750611e-09 -0.0045590822 0 -0.00028328779 0 0)
(-3.6693737e-09 -0.0063887027 0 -0.00055600589 0 0)
(-3.3293002e-09 0.0063887045 0 -0.00055600615 0 0)
(-4.0207613e-09 0.004559082 0 -0.00028328794 0 0)
(1.0883782e-09 0.0027308466 0 -0.00010177123 0 0)
(6.3883906e-09 0.00090914079 0 -1.1296412e-05 0 0)
(6.3835736e-09 -0.00090914192 0 -1.1296427e-05 0 0)
(1.038086e-09 -0.0027308471 0 -0.00010177122 0 0)
(-4.0823747e-09 -0.0045590816 0 -0.00028328789 0 0)
(-3.3631736e-09 -0.0063887035 0 -0.00055600604 0 0)
(-3.4193278e-09 0.0063887055 0 -0.00055600632 0 0)
(-3.7812334e-09 0.0045590815 0 -0.00028328806 0 0)
(1.0435324e-09 0.002730845 0 -0.00010177117 0 0)
(6.1893837e-09 0.00090914017 0 -1.1296217e-05 0 0)
(6.1586559e-09 -0.00090914122 0 -1.1296213e-05 0 0)
(9.9395476e-10 -0.0027308454 0 -0.00010177116 0 0)
(-3.840665e-09 -0.0045590811 0 -0.000283288 0 0)
(-3.4643508e-09 -0.0063887046 0 -0.00055600622 0 0)
(-3.1303907e-09 0.0063887063 0 -0.00055600646 0 0)
(-3.7806112e-09 0.0045590809 0 -0.00028328816 0 0)
(1.0336113e-09 0.0027308441 0 -0.00010177114 0 0)
(6.0169612e-09 0.00090913952 0 -1.1296051e-05 0 0)
(6.0060649e-09 -0.00090914063 0 -1.1296059e-05 0 0)
(9.724953e-10 -0.0027308445 0 -0.00010177112 0 0)
(-3.8489659e-09 -0.0045590806 0 -0.0002832881 0 0)
(-3.1656256e-09 -0.0063887054 0 -0.00055600636 0 0)
(-3.2200577e-09 0.0063887073 0 -0.00055600662 0 0)
(-3.5480492e-09 0.0045590805 0 -0.00028328828 0 0)
(9.9176891e-10 0.0027308426 0 -0.00010177108 0 0)
(5.8237756e-09 0.00090913893 0 -1.1295863e-05 0 0)
(5.7876747e-09 -0.00090913995 0 -1.1295852e-05 0 0)
(9.302655e-10 -0.002730843 0 -0.00010177106 0 0)
(-3.6158631e-09 -0.0045590801 0 -0.00028328821 0 0)
(-3.2673082e-09 -0.0063887064 0 -0.00055600653 0 0)
(-2.9369319e-09 0.006388708 0 -0.00055600676 0 0)
(-3.5475956e-09 0.0045590799 0 -0.00028328838 0 0)
(9.8111268e-10 0.0027308417 0 -0.00010177105 0 0)
(5.6582112e-09 0.00090913833 0 -1.1295704e-05 0 0)
(5.6411859e-09 -0.00090913941 0 -1.1295705e-05 0 0)
(9.0843978e-10 -0.0027308422 0 -0.00010177102 0 0)
(-3.6249434e-09 -0.0045590796 0 -0.00028328831 0 0)
(-2.9755349e-09 -0.0063887071 0 -0.00055600666 0 0)
(-3.0268802e-09 0.006388709 0 -0.00055600692 0 0)
(-3.3224633e-09 0.0045590795 0 -0.00028328849 0 0)
(9.4175944e-10 0.0027308403 0 -0.000101771 0 0)
(5.4710999e-09 0.00090913777 0 -1.1295523e-05 0 0)
(5.4300656e-09 -0.00090913876 0 -1.1295505e-05 0 0)
(8.684166e-10 -0.0027308407 0 -0.00010177096 0 0)
(-3.3998617e-09 -0.0045590791 0 -0.00028328842 0 0)
(-3.077688e-09 -0.006388708 0 -0.00055600682 0 0)
(-2.7497368e-09 0.0063887096 0 -0.00055600705 0 0)
(-3.3229342e-09 0.004559079 0 -0.00028328859 0 0)
(9.3020674e-10 0.0027308395 0 -0.00010177097 0 0)
(5.3124163e-09 0.0009091372 0 -1.129537e-05 0 0)
(5.2897352e-09 -0.00090913826 0 -1.1295365e-05 0 0)
(8.4662463e-10 -0.0027308399 0 -0.00010177093 0 0)
(-3.4097178e-09 -0.0045590787 0 -0.00028328851 0 0)
(-2.7925186e-09 -0.0063887087 0 -0.00055600695 0 0)
(-2.8404755e-09 0.0063887105 0 -0.0005560072 0 0)
(-3.1054635e-09 0.0045590786 0 -0.0002832887 0 0)
(8.930202e-10 0.0027308382 0 -0.00010177093 0 0)
(5.1316674e-09 0.00090913668 0 -1.1295197e-05 0 0)
(5.0864593e-09 -0.00090913765 0 -1.1295173e-05 0 0)
(8.0896252e-10 -0.0027308385 0 -0.00010177087 0 0)
(-3.1922634e-09 -0.0045590783 0 -0.00028328862 0 0)
(-2.8952315e-09 -0.0063887096 0 -0.0005560071 0 0)
(-2.5694383e-09 0.0063887111 0 -0.00055600732 0 0)
(-3.1074259e-09 0.0045590781 0 -0.0002832888 0 0)
(8.8056445e-10 0.0027308374 0 -0.0001017709 0 0)
(4.9799276e-09 0.00090913615 0 -1.129505e-05 0 0)
(4.9523299e-09 -0.00090913718 0 -1.1295039e-05 0 0)
(7.8747165e-10 -0.0027308378 0 -0.00010177084 0 0)
(-3.2030197e-09 -0.0045590778 0 -0.00028328871 0 0)
(-2.6164324e-09 -0.0063887102 0 -0.00055600723 0 0)
(-2.6613547e-09 0.006388712 0 -0.00055600747 0 0)
(-2.897708e-09 0.0045590777 0 -0.0002832889 0 0)
(8.4535093e-10 0.0027308361 0 -0.00010177085 0 0)
(4.8058236e-09 0.00090913566 0 -1.1294884e-05 0 0)
(4.7573299e-09 -0.0009091366 0 -1.1294855e-05 0 0)
(7.5222402e-10 -0.0027308365 0 -0.00010177079 0 0)
(-2.9929198e-09 -0.0045590774 0 -0.00028328881 0 0)
(-2.7198697e-09 -0.0063887111 0 -0.00055600737 0 0)
(-2.3964952e-09 0.0063887125 0 -0.00055600758 0 0)
(-2.9015791e-09 0.0045590773 0 -0.00028328899 0 0)
(8.320781e-10 0.0027308355 0 -0.00010177083 0 0)
(4.6610934e-09 0.00090913517 0 -1.1294744e-05 0 0)
(4.6294195e-09 -0.00090913616 0 -1.1294727e-05 0 0)
(7.3121108e-10 -0.0027308359 0 -0.00010177076 0 0)
(-3.0047694e-09 -0.004559077 0 -0.0002832889 0 0)