/*--------------------------------*- C++ -*----------------------------------*\
| =========                 |                                                 |
| \\      /  F ield         | OpenFOAM: The Open Source CFD Toolbox           |
|  \\    /   O peration     | Version:  5.x                                   |
|   \\  /    A nd           | Web:      www.OpenFOAM.org                      |
|    \\/     M anipulation  |                                                 |
\*---------------------------------------------------------------------------*/
FoamFile
{
    version     2.0;
    format      ascii;
    class       volVectorField;
    location    "6";
    object      U;
}
// * * * * * * * * * * * * * * * * * * * * * * * * * * * * * * * * * * * * * //

dimensions      [0 1 -1 0 0 0 0];

internalField   nonuniform List<vector> 
1920
(
(-2.1289507e-07 1.2525397e-07 0)
(-5.2689001e-07 5.8985156e-08 0)
(-8.2964877e-07 -2.6727236e-08 0)
(-3.9766913e-07 -7.9768573e-08 0)
(3.9834407e-07 -8.0908679e-08 0)
(8.3005432e-07 -2.5694324e-08 0)
(5.2711342e-07 5.8301716e-08 0)
(2.1282359e-07 1.254985e-07 0)
(-7.1847173e-08 2.3214214e-07 0)
(-1.1447446e-06 4.2775017e-07 0)
(-1.7954259e-06 -6.3276946e-08 0)
(-9.1070619e-07 -6.2111382e-07 0)
(9.1230006e-07 -6.1893056e-07 0)
(1.7968065e-06 -6.483457e-08 0)
(1.1449851e-06 4.2925896e-07 0)
(7.2137988e-08 2.3176727e-07 0)
(-1.3930866e-07 6.2059002e-07 0)
(-1.6879236e-06 9.869838e-07 0)
(-2.5526342e-06 -1.4655572e-07 0)
(-1.2117119e-06 -1.4384561e-06 0)
(1.2141202e-06 -1.4414461e-06 0)
(2.5540907e-06 -1.4313447e-07 0)
(1.6889941e-06 9.856362e-07 0)
(1.3909544e-07 6.2154622e-07 0)
(-1.9104788e-07 1.1152605e-06 0)
(-2.1290993e-06 1.6662845e-06 0)
(-2.9809172e-06 -2.7931298e-07 0)
(-1.4780511e-06 -2.502025e-06 0)
(1.4805631e-06 -2.4974516e-06 0)
(2.9830651e-06 -2.8189919e-07 0)
(2.1296875e-06 1.6698558e-06 0)
(1.9139049e-07 1.1148001e-06 0)
(-2.5153836e-07 1.7154682e-06 0)
(-2.3125834e-06 2.4329857e-06 0)
(-3.2881332e-06 -4.6225194e-07 0)
(-1.5284023e-06 -3.6872868e-06 0)
(1.5309863e-06 -3.6915603e-06 0)
(3.2897796e-06 -4.5655771e-07 0)
(2.3137418e-06 2.4315985e-06 0)
(2.5141864e-07 1.717252e-06 0)
(-2.4531519e-07 2.3616632e-06 0)
(-2.4171295e-06 3.2170536e-06 0)
(-3.2881485e-06 -6.4854554e-07 0)
(-1.617979e-06 -4.9347099e-06 0)
(1.6199885e-06 -4.9286526e-06 0)
(3.2898627e-06 -6.5131266e-07 0)
(2.4176996e-06 3.2222081e-06 0)
(2.4553874e-07 2.3614192e-06 0)
(-2.6146133e-07 2.9998973e-06 0)
(-2.3006751e-06 3.999485e-06 0)
(-3.2427347e-06 -8.4804578e-07 0)
(-1.4981402e-06 -6.1557852e-06 0)
(1.4995925e-06 -6.1604557e-06 0)
(3.2437054e-06 -8.4113135e-07 0)
(2.3013082e-06 3.99846e-06 0)
(2.6146771e-07 3.002228e-06 0)
(-2.2304494e-07 3.6078673e-06 0)
(-2.1690274e-06 4.7307329e-06 0)
(-2.9553165e-06 -1.0266473e-06 0)
(-1.450205e-06 -7.3200011e-06 0)
(1.4508277e-06 -7.3135829e-06 0)
(2.9558242e-06 -1.0291291e-06 0)
(2.1692768e-06 4.7365037e-06 0)
(2.2306062e-07 3.6078765e-06 0)
(-2.1179896e-07 4.1528229e-06 0)
(-1.8943536e-06 5.4039739e-06 0)
(-2.6867397e-06 -1.1968885e-06 0)
(-1.2454754e-06 -8.366522e-06 0)
(1.2452909e-06 -8.3708744e-06 0)
(2.6866731e-06 -1.1899921e-06 0)
(1.8942413e-06 5.4033328e-06 0)
(2.1189745e-07 4.1552297e-06 0)
(-1.644656e-07 4.6296878e-06 0)
(-1.6502476e-06 5.9894433e-06 0)
(-2.2803665e-06 -1.3331732e-06 0)
(-1.1204751e-06 -9.2943564e-06 0)
(1.1195893e-06 -9.2885621e-06 0)
(2.2796055e-06 -1.3352043e-06 0)
(1.6501016e-06 5.9947926e-06 0)
(1.6430747e-07 4.6298244e-06 0)
(-1.4159503e-07 5.0256261e-06 0)
(-1.341894e-06 6.4925001e-06 0)
(-1.9311525e-06 -1.4530388e-06 0)
(-9.046126e-07 -1.007142e-05 0)
(9.0301408e-07 -1.0075042e-05 0)
(1.9301594e-06 -1.4471971e-06 0)
(1.3411856e-06 6.4920476e-06 0)
(1.41736e-07 5.0276845e-06 0)
(-1.0120137e-07 5.3472467e-06 0)
(-1.0847377e-06 6.9016647e-06 0)
(-1.5360136e-06 -1.5398152e-06 0)
(-7.5666613e-07 -1.0716183e-05 0)
(7.5467129e-07 -1.0711622e-05 0)
(1.5343655e-06 -1.541478e-06 0)
(1.0842818e-06 6.9058446e-06 0)
(1.0095825e-07 5.3473489e-06 0)
(-7.771912e-08 5.5945196e-06 0)
(-8.2227711e-07 7.2310239e-06 0)
(-1.2101188e-06 -1.6105694e-06 0)
(-5.7681544e-07 -1.1219604e-05 0)
(5.7434479e-07 -1.1222401e-05 0)
(1.2085283e-06 -1.6063684e-06 0)
(8.2125583e-07 7.2304989e-06 0)
(7.7856161e-08 5.5959795e-06 0)
(-5.0280811e-08 5.7802779e-06 0)
(-6.1158273e-07 7.4808992e-06 0)
(-9.0062782e-07 -1.6554424e-06 0)
(-4.4551672e-07 -1.161031e-05 0)
(4.4289933e-07 -1.1607183e-05 0)
(8.9853432e-07 -1.6569596e-06 0)
(6.1093073e-07 7.4835556e-06 0)
(5.0034495e-08 5.7802133e-06 0)
(-3.2072865e-08 5.9107776e-06 0)
(-4.2795661e-07 7.6688292e-06 0)
(-6.5332299e-07 -1.6891122e-06 0)
(-3.2048456e-07 -1.1892784e-05 0)
(3.1758392e-07 -1.1894896e-05 0)
(6.5140194e-07 -1.6867209e-06 0)
(4.2683836e-07 7.6679767e-06 0)
(3.2173293e-08 5.911557e-06 0)
(-1.735647e-08 5.9996265e-06 0)
(-2.8513833e-07 7.8002446e-06 0)
(-4.5037357e-07 -1.7057057e-06 0)
(-2.2438985e-07 -1.2096021e-05 0)
(2.2144294e-07 -1.2094236e-05 0)
(4.4809652e-07 -1.7073661e-06 0)
(2.8434783e-07 7.8013149e-06 0)
(1.7150035e-08 5.9992937e-06 0)
(-5.9103657e-09 6.0542847e-06 0)
(-1.7849203e-07 7.8916315e-06 0)
(-2.9239112e-07 -1.7165998e-06 0)
(-1.5145368e-07 -1.2229236e-05 0)
(1.4832452e-07 -1.2230935e-05 0)
(2.9025501e-07 -1.7159452e-06 0)
(1.7736239e-07 7.8902101e-06 0)
(5.957847e-09 6.0543901e-06 0)
(-5.3862355e-10 6.0857728e-06 0)
(-9.7491444e-08 7.9487624e-06 0)
(-1.8140417e-07 -1.7179929e-06 0)
(-9.154962e-08 -1.2315861e-05 0)
(8.8397321e-08 -1.2315203e-05 0)
(1.7902978e-07 -1.7200972e-06 0)
(9.6576087e-08 7.9483092e-06 0)
(3.7898392e-10 6.0850805e-06 0)
(5.386889e-09 6.0999127e-06 0)
(-4.8160272e-08 7.9843943e-06 0)
(-9.6209548e-08 -1.7178194e-06 0)
(-5.7340726e-08 -1.2364226e-05 0)
(5.4078824e-08 -1.2365785e-05 0)
(9.3917273e-08 -1.718747e-06 0)
(4.7035832e-08 7.9821815e-06 0)
(-5.3924912e-09 6.0993694e-06 0)
(5.3229011e-09 6.1040131e-06 0)
(-1.0559731e-08 8.0025166e-06 0)
(-4.8416529e-08 -1.7133414e-06 0)
(-2.5044769e-08 -1.2390264e-05 0)
(2.1788725e-08 -1.2390515e-05 0)
(4.6012821e-08 -1.7161469e-06 0)
(9.5505247e-09 8.0006295e-06 0)
(-5.4448758e-09 6.1028796e-06 0)
(7.8873167e-09 6.1014868e-06 0)
(4.3159271e-09 8.0115143e-06 0)
(-1.0498742e-08 -1.7095425e-06 0)
(-1.4504377e-08 -1.2399261e-05 0)
(1.1263004e-08 -1.2400905e-05 0)
(8.1674107e-09 -1.7118883e-06 0)
(-5.4042392e-09 8.0083482e-06 0)
(-7.933173e-09 6.1003204e-06 0)
(5.4241434e-09 6.0963463e-06 0)
(1.7511558e-08 8.0133409e-06 0)
(1.7590572e-09 -1.7043546e-06 0)
(9.3875124e-10 -1.2400469e-05 0)
(-4.0703501e-09 -1.2401436e-05 0)
(-4.0409908e-09 -1.7080128e-06 0)
(-1.8527893e-08 8.010131e-06 0)
(-5.5164664e-09 6.0947245e-06 0)
(6.5073694e-09 6.0900348e-06 0)
(1.587271e-08 8.0127247e-06 0)
(1.483778e-08 -1.7006097e-06 0)
(-3.9157686e-10 -1.2396272e-05 0)
(-2.5508696e-09 -1.2398135e-05 0)
(-1.6985721e-08 -1.7041908e-06 0)
(-1.6842095e-08 8.0085613e-06 0)
(-6.5730865e-09 6.0882929e-06 0)
(3.4481463e-09 6.0843156e-06 0)
(1.8457481e-08 8.0101854e-06 0)
(1.1178403e-08 -1.6967728e-06 0)
(6.8154737e-09 -1.239126e-05 0)
(-9.4878777e-09 -1.2392782e-05 0)
(-1.3105387e-08 -1.7012859e-06 0)
(-1.9350599e-08 8.0058287e-06 0)
(-3.5115961e-09 6.0822236e-06 0)
(4.2094593e-09 6.0794679e-06 0)
(1.1201177e-08 8.0079982e-06 0)
(1.4240712e-08 -1.6943168e-06 0)
(9.1692212e-10 -1.2385923e-05 0)
(-3.2121378e-09 -1.238803e-05 0)
(-1.5938958e-08 -1.6988926e-06 0)
(-1.1938972e-08 8.0029476e-06 0)
(-4.2740203e-09 6.0772466e-06 0)
(1.3528196e-09 6.076028e-06 0)
(1.092144e-08 8.0059628e-06 0)
(5.6928584e-09 -1.6921584e-06 0)
(5.1557506e-09 -1.238217e-05 0)
(-7.0377342e-09 -1.2384088e-05 0)
(-7.0245511e-09 -1.6973734e-06 0)
(-1.1562563e-08 8.0007305e-06 0)
(-1.383591e-09 6.0735602e-06 0)
(2.2999641e-09 6.0737805e-06 0)
(3.2024571e-09 8.0049895e-06 0)
(6.44051e-09 -1.6910202e-06 0)
(-1.6981908e-09 -1.2379605e-05 0)
(3.2573805e-10 -1.2381904e-05 0)
(-7.4735562e-09 -1.6962804e-06 0)
(-3.6149965e-09 7.999306e-06 0)
(-2.3477311e-09 6.0712298e-06 0)
(-1.5439057e-10 6.0727424e-06 0)
(3.3480479e-09 8.0046559e-06 0)
(-2.1644568e-09 -1.6901756e-06 0)
(2.091367e-09 -1.2378861e-05 0)
(-2.9745785e-09 -1.2381015e-05 0)
(1.5777495e-09 -1.6958213e-06 0)
(-3.6570241e-09 7.9989017e-06 0)
(1.5884124e-10 6.0700537e-06 0)
(1.0897187e-09 6.0725946e-06 0)
(-3.1482661e-09 8.0052459e-06 0)
(-7.2943803e-10 -1.6899836e-06 0)
(-4.3861291e-09 -1.2379296e-05 0)
(4.0546246e-09 -1.2381684e-05 0)
(4.5302142e-10 -1.6955729e-06 0)
(3.0984632e-09 7.9992731e-06 0)
(-1.1135113e-09 6.0698989e-06 0)
(-1.0231657e-09 6.0732138e-06 0)
(-1.7462269e-09 8.0063609e-06 0)
(-7.9960342e-09 -1.6899699e-06 0)
(-1.9575897e-10 -1.2381069e-05 0)
(3.3832878e-10 -1.2383302e-05 0)
(8.169849e-09 -1.6957208e-06 0)
(1.7804997e-09 8.0004701e-06 0)
(1.0608415e-09 6.0704851e-06 0)
(4.6014316e-10 6.0743377e-06 0)
(-6.9291962e-09 8.0080632e-06 0)
(-5.256903e-09 -1.6903396e-06 0)
(-6.0697837e-09 -1.2383589e-05 0)
(6.71447e-09 -1.2385944e-05 0)
(5.6901699e-09 -1.6959052e-06 0)
(7.2148398e-09 8.002162e-06 0)
(-4.6078696e-10 6.0716824e-06 0)
(-1.4344989e-09 6.0758571e-06 0)
(-4.4445013e-09 8.0100518e-06 0)
(-1.1242016e-08 -1.6907768e-06 0)
(-1.3987513e-09 -1.2386906e-05 0)
(2.4242477e-09 -1.2389079e-05 0)
(1.2066914e-08 -1.6963187e-06 0)
(4.7709428e-09 8.0043809e-06 0)
(1.4986374e-09 6.0732579e-06 0)
(1.9503845e-10 6.0775978e-06 0)
(-8.7143699e-09 8.0123479e-06 0)
(-7.4688683e-09 -1.6914319e-06 0)
(-6.8264661e-09 -1.2390564e-05 0)
(8.2395204e-09 -1.2392776e-05 0)
(8.4579815e-09 -1.6966722e-06 0)
(9.2585449e-09 8.0068312e-06 0)
(-1.7883415e-10 6.0751386e-06 0)
(-1.5836292e-09 6.0795024e-06 0)
(-5.5517515e-09 8.0147404e-06 0)
(-1.26145e-08 -1.6920778e-06 0)
(-1.8374736e-09 -1.2394629e-05 0)
(3.4931797e-09 -1.2396631e-05 0)
(1.3900785e-08 -1.6971584e-06 0)
(6.0807154e-09 8.0095675e-06 0)
(1.6647174e-09 6.0771632e-06 0)
(1.1798042e-10 6.0814656e-06 0)
(-9.3130629e-09 8.0172696e-06 0)
(-8.2337742e-09 -1.6928513e-06 0)
(-7.0236848e-09 -1.2398765e-05 0)
(8.9245973e-09 -1.2400753e-05 0)
(9.5712869e-09 -1.6975492e-06 0)
(1.0015231e-08 8.0123608e-06 0)
(-9.3492546e-11 6.0793095e-06 0)
(-1.6078246e-09 6.0834749e-06 0)
(-5.8086903e-09 8.0197835e-06 0)
(-1.2937296e-08 -1.6935698e-06 0)
(-1.8883475e-09 -1.2403082e-05 0)
(3.8846366e-09 -1.2404843e-05 0)
(1.4469414e-08 -1.6980253e-06 0)
(6.439217e-09 8.0152843e-06 0)
(1.6960935e-09 6.0814743e-06 0)
(1.2048989e-10 6.0854659e-06 0)
(-9.3330492e-09 8.0223508e-06 0)
(-8.2754247e-09 -1.6943707e-06 0)
(-6.9757544e-09 -1.2407326e-05 0)
(9.0797556e-09 -1.2409042e-05 0)
(9.7518019e-09 -1.6984052e-06 0)
(1.0093732e-08 8.0181697e-06 0)
(-9.5898406e-11 6.0836658e-06 0)
(-1.5841228e-09 6.0874544e-06 0)
(-5.6945532e-09 8.0248499e-06 0)
(-1.2787481e-08 -1.6950917e-06 0)
(-1.8067265e-09 -1.2411635e-05 0)
(3.8767768e-09 -1.2413123e-05 0)
(1.4368402e-08 -1.6988505e-06 0)
(6.3358064e-09 8.0210966e-06 0)
(1.6714426e-09 6.0858195e-06 0)
(1.477516e-10 6.0893959e-06 0)
(-9.1278845e-09 8.0273713e-06 0)
(-8.0350845e-09 -1.695874e-06 0)
(-6.8676114e-09 -1.2415807e-05 0)
(8.9339577e-09 -1.2417239e-05 0)
(9.4745074e-09 -1.6992131e-06 0)
(9.8653393e-09 8.0239425e-06 0)
(-1.2927941e-10 6.0879569e-06 0)
(-1.5484109e-09 6.091321e-06 0)
(-5.4607638e-09 8.0298059e-06 0)
(-1.2481856e-08 -1.6965638e-06 0)
(-1.7201433e-09 -1.2419995e-05 0)
(3.6559187e-09 -1.2421211e-05 0)
(1.3959308e-08 -1.6996334e-06 0)
(6.0441405e-09 8.0267836e-06 0)
(1.6292019e-09 6.0900367e-06 0)
(1.7709912e-10 6.0931928e-06 0)
(-8.8670073e-09 8.0322565e-06 0)
(-7.7293077e-09 -1.6973054e-06 0)
(-6.7786481e-09 -1.2424024e-05 0)
(8.6344389e-09 -1.2425188e-05 0)
(9.0068387e-09 -1.6999875e-06 0)
(9.5246817e-09 8.02953e-06 0)
(-1.6847919e-10 6.0920841e-06 0)
(-1.5140113e-09 6.0950483e-06 0)
(-5.215119e-09 8.0346174e-06 0)
(-1.2159998e-08 -1.6979495e-06 0)
(-1.6708243e-09 -1.2428052e-05 0)
(3.3358494e-09 -1.2429019e-05 0)
(1.3435308e-08 -1.7003955e-06 0)
(5.697792e-09 8.0322493e-06 0)
(1.585305e-09 6.0940709e-06 0)
(2.0177596e-10 6.0968522e-06 0)
(-8.6147275e-09 8.036997e-06 0)
(-7.44e-09 -1.6986413e-06 0)
(-6.7260378e-09 -1.243192e-05 0)
(8.2695825e-09 -1.2432848e-05 0)
(8.4835311e-09 -1.700752e-06 0)
(9.1614146e-09 8.0348744e-06 0)
(-2.0444518e-10 6.0960208e-06 0)
(-1.4839363e-09 6.0986436e-06 0)
(-4.990991e-09 8.0392895e-06 0)
(-1.1865055e-08 -1.6992351e-06 0)
(-1.6573999e-09 -1.2435781e-05 0)
(2.9827207e-09 -1.243654e-05 0)
(1.2889574e-08 -1.7011585e-06 0)
(5.3535815e-09 8.0374625e-06 0)
(1.5449148e-09 6.0979139e-06 0)
(2.2149224e-10 6.100387e-06 0)
(-8.3853016e-09 8.0416044e-06 0)
(-7.1830037e-09 -1.699875e-06 0)
(-6.6989606e-09 -1.243949e-05 0)
(7.8902373e-09 -1.2440226e-05 0)
(7.9657206e-09 -1.7015247e-06 0)
(8.8109505e-09 8.0399631e-06 0)
(-2.3514991e-10 6.0997703e-06 0)
(-1.4574408e-09 6.1021213e-06 0)
(-4.7898261e-09 8.0438355e-06 0)
(-1.1597339e-08 -1.7004192e-06 0)
(-1.6625389e-09 -1.2443192e-05 0)
(2.63349e-09 -1.2443788e-05 0)
(1.2362211e-08 -1.7019358e-06 0)
(5.0311178e-09 8.0424226e-06 0)
(1.5087765e-09 6.1015754e-06 0)
(2.3785088e-10 6.1038103e-06 0)
(-8.1738413e-09 8.046091e-06 0)
(-6.9486216e-09 -1.7010089e-06 0)
(-6.679001e-09 -1.244675e-05 0)
(7.5242524e-09 -1.2447342e-05 0)
(7.4773135e-09 -1.7023148e-06 0)
(8.4836451e-09 8.0448035e-06 0)
(-2.6110243e-10 6.1033454e-06 0)
(-1.4329663e-09 6.105492e-06 0)
(-4.6029569e-09 8.0482651e-06 0)
(-1.1343384e-08 -1.7015069e-06 0)
(-1.6675177e-09 -1.2450303e-05 0)
(2.307446e-09 -1.2450782e-05 0)
(1.1867272e-08 -1.7027321e-06 0)
(4.7338787e-09 8.0471419e-06 0)
(1.4761809e-09 6.1050695e-06 0)
(2.5251524e-10 6.1071299e-06 0)
(-7.9710173e-09 8.0504631e-06 0)
(-6.7216539e-09 -1.7020502e-06 0)
(-6.6498776e-09 -1.245372e-05 0)
(7.1854307e-09 -1.2454212e-05 0)
(7.0246364e-09 -1.7031232e-06 0)
(8.1795568e-09 8.0494107e-06 0)
(-2.8343675e-10 6.1067599e-06 0)
(-1.4092049e-09 6.1087608e-06 0)
(-4.4210501e-09 8.0525809e-06 0)
(-1.1089136e-08 -1.7025071e-06 0)
(-1.6581807e-09 -1.2457131e-05 0)
(2.0131003e-09 -1.2457536e-05 0)
(1.1406822e-08 -1.7035454e-06 0)
(4.459269e-09 8.0516365e-06 0)
(1.446158e-09 6.1084093e-06 0)
(2.6667358e-10 6.1103486e-06 0)
(-7.7688276e-09 8.0547204e-06 0)
(-6.4894896e-09 -1.7030088e-06 0)
(-6.6007538e-09 -1.2460415e-05 0)
(6.8789824e-09 -1.2460846e-05 0)
(6.6062563e-09 -1.7039454e-06 0)
(7.895211e-09 8.0538012e-06 0)
(-3.0322965e-10 6.1100262e-06 0)
(-1.3853336e-09 6.1119286e-06 0)
(-4.2372707e-09 8.05678e-06 0)
(-1.082458e-08 -1.7034298e-06 0)
(-1.6262417e-09 -1.246369e-05 0)
(1.7524087e-09 -1.2464056e-05 0)
(1.0977835e-08 -1.7043692e-06 0)
(4.2029946e-09 8.0559225e-06 0)
(1.417872e-09 6.1116059e-06 0)
(2.8101605e-10 6.1134653e-06 0)
(-7.5621207e-09 8.0588579e-06 0)
(-6.2442544e-09 -1.7038952e-06 0)
(-6.526331e-09 -1.2466845e-05 0)
(6.604966e-09 -1.2467247e-05 0)
(6.2176895e-09 -1.7047737e-06 0)
(7.6264391e-09 8.0579902e-06 0)
(-3.2132549e-10 6.1131537e-06 0)
(-1.3609503e-09 6.1149929e-06 0)
(-4.047702e-09 8.0608557e-06 0)
(-1.0544373e-08 -1.7042853e-06 0)
(-1.5685087e-09 -1.246999e-05 0)
(1.5234915e-09 -1.2470345e-05 0)
(1.0575484e-08 -1.7051949e-06 0)
(3.9607994e-09 8.0600142e-06 0)
(1.390703e-09 6.1146675e-06 0)
(2.9586117e-10 6.116477e-06 0)
(-7.3484134e-09 8.062868e-06 0)
(-5.9824576e-09 -1.7047193e-06 0)
(-6.42567e-09 -1.247302e-05 0)
(6.3605532e-09 -1.2473418e-05 0)
(5.8536297e-09 -1.7055992e-06 0)
(7.3694597e-09 8.0619909e-06 0)
(-3.3833549e-10 6.1161497e-06 0)
(-1.3359417e-09 6.1179503e-06 0)
(-3.8507984e-09 8.0647999e-06 0)
(-1.0246995e-08 -1.7050834e-06 0)
(-1.4854599e-09 -1.2476037e-05 0)
(1.3224548e-09 -1.2476401e-05 0)
(1.0194711e-08 -1.7060135e-06 0)
(3.7290736e-09 8.0639234e-06 0)
(1.3642277e-09 6.1176004e-06 0)
(3.112908e-10 6.1193798e-06 0)
(-7.1272052e-09 8.0667423e-06 0)
(-5.7038597e-09 -1.7054902e-06 0)
(-6.30075e-09 -1.2478945e-05 0)
(6.1415447e-09 -1.2479356e-05 0)
(5.5090025e-09 -1.7064132e-06 0)
(7.1212235e-09 8.065814e-06 0)
(-3.546814e-10 6.1190196e-06 0)
(-1.3103673e-09 6.1207969e-06 0)
(-3.6466508e-09 8.0686043e-06 0)
(-9.9335557e-09 -1.7058323e-06 0)
(-1.3798483e-09 -1.2481836e-05 0)
(1.1446103e-09 -1.2482224e-05 0)
(9.8309525e-09 -1.7068168e-06 0)
(3.5050087e-09 8.0676596e-06 0)
(1.3381787e-09 6.1204092e-06 0)
(3.2725293e-10 6.12217e-06 0)
(-6.8992803e-09 8.0704729e-06 0)
(-5.4103097e-09 -1.7062157e-06 0)
(-6.1552075e-09 -1.2484623e-05 0)
(5.9433634e-09 -1.2485058e-05 0)
(5.1794473e-09 -1.7072078e-06 0)
(6.8794673e-09 8.069468e-06 0)
(-3.7064032e-10 6.1217671e-06 0)
(-1.2843761e-09 6.1235292e-06 0)
(-3.43635e-09 8.0722615e-06 0)
(-9.6067337e-09 -1.7065391e-06 0)
(-1.2555888e-09 -1.248739e-05 0)
(9.852574e-10 -1.2487808e-05 0)
(9.4804612e-09 -1.7075975e-06 0)
(3.2865762e-09 8.0712304e-06 0)
(1.3124056e-09 6.1230971e-06 0)
(3.4362905e-10 6.1248444e-06 0)
(-6.6661543e-09 8.0740531e-06 0)
(-5.1048093e-09 -1.706902e-06 0)
(-5.9933924e-09 -1.2490056e-05 0)
(5.7616658e-09 -1.2490521e-05 0)
(4.8615013e-09 -1.7079765e-06 0)
(6.6426525e-09 8.0729594e-06 0)
(-3.863811e-10 6.1243952e-06 0)
(-1.2581544e-09 6.1261444e-06 0)
(-3.2215156e-09 8.0757656e-06 0)
(-9.2699821e-09 -1.7072092e-06 0)
(-1.1169748e-09 -1.24927e-05 0)
(8.4014168e-10 -1.2493154e-05 0)
(9.1403937e-09 -1.7083499e-06 0)
(3.0724366e-09 8.0746416e-06 0)
(1.2868442e-09 6.1256667e-06 0)
(3.6027488e-10 6.1274007e-06 0)
(-6.4296841e-09 8.077478e-06 0)
(-4.7908481e-09 -1.707554e-06 0)
(-5.819737e-09 -1.2495248e-05 0)
(5.5926734e-09 -1.2495744e-05 0)
(4.5526161e-09 -1.7087144e-06 0)
(6.4098604e-09 8.0762934e-06 0)
(-4.0199275e-10 6.126906e-06 0)
(-1.2318957e-09 6.1286408e-06 0)
(-3.0039783e-09 8.0791126e-06 0)
(-8.9269848e-09 -1.7078471e-06 0)
(-9.6818298e-10 -1.249777e-05 0)
(7.0567943e-10 -1.2498258e-05 0)
(8.8087731e-09 -1.7090696e-06 0)
(2.8618247e-09 8.0778978e-06 0)
(1.2614919e-09 6.1281198e-06 0)
(3.7704299e-10 6.1298378e-06 0)
(-6.1918134e-09 8.0807444e-06 0)
(-4.4719713e-09 -1.7081755e-06 0)
(-5.6383783e-09 -1.2500199e-05 0)
(5.4333096e-09 -1.2500726e-05 0)
(4.2510785e-09 -1.7094178e-06 0)
(6.1806721e-09 8.0794743e-06 0)
(-4.175066e-10 6.1293013e-06 0)
(-1.2057839e-09 6.1310177e-06 0)
(-2.7855792e-09 8.0823e-06 0)
(-8.5813189e-09 -1.7084557e-06 0)
(-8.1299496e-10 -1.25026e-05 0)
(5.790231e-10 -1.2503121e-05 0)
(8.4843811e-09 -1.7097536e-06 0)
(2.654428e-09 8.0810026e-06 0)
(1.2363878e-09 6.1304582e-06 0)
(3.937946e-10 6.1321552e-06 0)
(-5.9544171e-09 8.0838508e-06 0)
(-4.1515208e-09 -1.7087691e-06 0)
(-5.4529632e-09 -1.2504913e-05 0)
(5.2812094e-09 -1.2505468e-05 0)
(3.9558811e-09 -1.7100843e-06 0)
(5.9550495e-09 8.0825054e-06 0)
(-4.3291399e-10 6.1315827e-06 0)
(-1.1799857e-09 6.1332752e-06 0)
(-2.5680508e-09 8.0853273e-06 0)
(-8.2362628e-09 -1.7090376e-06 0)
(-6.5467106e-10 -1.2507195e-05 0)
(4.5802819e-10 -1.2507744e-05 0)
(8.1666165e-09 -1.7104003e-06 0)
(2.4502706e-09 8.0839594e-06 0)
(1.2115977e-09 6.1326836e-06 0)
(4.1040518e-10 6.1343537e-06 0)
(-5.719214e-09 8.0867971e-06 0)
(-3.8324975e-09 -1.7093369e-06 0)
(-5.2665762e-09 -1.2509392e-05 0)
(5.1346549e-09 -1.250997e-05 0)
(3.6665756e-09 -1.7107128e-06 0)
(5.733225e-09 8.0853898e-06 0)
(-4.4818029e-10 6.1337521e-06 0)
(-1.1546469e-09 6.1354144e-06 0)
(-2.3529537e-09 8.0881951e-06 0)
(-7.8947015e-09 -1.7095942e-06 0)
(-4.9591865e-10 -1.2511558e-05 0)
(3.4116653e-10 -1.2512129e-05 0)
(7.8553471e-09 -1.7110086e-06 0)
(2.2496093e-09 8.0867713e-06 0)
(1.1872012e-09 6.1347978e-06 0)
(4.2676646e-10 6.1364348e-06 0)
(-5.4877213e-09 8.0895849e-06 0)
(-3.5175e-09 -1.7098801e-06 0)
(-5.0817401e-09 -1.2513641e-05 0)
(4.9924754e-09 -1.2514237e-05 0)
(3.3831264e-09 -1.7113027e-06 0)
(5.5156052e-09 8.0881307e-06 0)
(-4.6325582e-10 6.1358114e-06 0)
(-1.1298917e-09 6.1374371e-06 0)
(-2.1416459e-09 8.0909055e-06 0)
(-7.5590928e-09 -1.7101268e-06 0)
(-3.3891626e-10 -1.2515692e-05 0)
(2.2741825e-10 -1.251628e-05 0)
(7.5507714e-09 -1.7115786e-06 0)
(2.0528445e-09 8.0894412e-06 0)
(1.163283e-09 6.1368029e-06 0)
(4.4278673e-10 6.1384004e-06 0)
(-5.2612372e-09 8.0922168e-06 0)
(-3.2087116e-09 -1.7103996e-06 0)
(-4.9004574e-09 -1.2517665e-05 0)
(4.8539373e-09 -1.2518271e-05 0)
(3.1057797e-09 -1.7118544e-06 0)
(5.3026914e-09 8.0907311e-06 0)
(-4.7808434e-10 6.1377627e-06 0)
(-1.1058234e-09 6.1393458e-06 0)
(-1.9352744e-09 8.0934616e-06 0)
(-7.2314709e-09 -1.710636e-06 0)
(-1.8536493e-10 -1.2519603e-05 0)
(1.1616161e-10 -1.2520202e-05 0)
(7.253297e-09 -1.7121109e-06 0)
(1.8604495e-09 8.0919722e-06 0)
(1.1399257e-09 6.1387012e-06 0)
(4.5839029e-10 6.1402536e-06 0)
(-5.0408405e-09 8.0946963e-06 0)
(-2.9079139e-09 -1.7108962e-06 0)
(-4.7242689e-09 -1.2521467e-05 0)
(4.7186387e-09 -1.252208e-05 0)
(2.8349529e-09 -1.7123687e-06 0)
(5.0950172e-09 8.0931942e-06 0)
(-4.926089e-10 6.1396084e-06 0)
(-1.0825251e-09 6.1411436e-06 0)
(-1.734779e-09 8.0958675e-06 0)
(-6.9134684e-09 -1.7111224e-06 0)
(-3.6550373e-11 -1.2523296e-05 0)
(7.0727844e-12 -1.2523901e-05 0)
(6.9634427e-09 -1.7126065e-06 0)
(1.6729144e-09 8.0943678e-06 0)
(1.1172053e-09 6.1404953e-06 0)
(4.7351645e-10 6.1419975e-06 0)
(-4.8273983e-09 8.097028e-06 0)
(-2.6165149e-09 -1.7113703e-06 0)
(-4.5543188e-09 -1.2525055e-05 0)
(4.5864168e-09 -1.2525669e-05 0)
(2.5711461e-09 -1.7128469e-06 0)
(4.8931013e-09 8.0955235e-06 0)
(-5.0677604e-10 6.1413513e-06 0)
(-1.0600617e-09 6.1428339e-06 0)
(-1.5409033e-09 8.0981279e-06 0)
(-6.6063504e-09 -1.7115865e-06 0)
(1.0659425e-10 -1.2526778e-05 0)
(-9.9959767e-11 -1.2527382e-05 0)
(6.6817619e-09 -1.7130668e-06 0)
(1.4907064e-09 8.0966314e-06 0)
(1.0951881e-09 6.1421879e-06 0)
(4.8811826e-10 6.1436358e-06 0)
(-4.6215807e-09 8.0992167e-06 0)
(-2.3355843e-09 -1.7118223e-06 0)
(-4.3914158e-09 -1.2528435e-05 0)
(4.4572716e-09 -1.2529044e-05 0)
(2.3148756e-09 -1.7132904e-06 0)
(4.6974151e-09 8.0977226e-06 0)
(-5.2053868e-10 6.1429944e-06 0)
(-1.0384808e-09 6.1444206e-06 0)
(-1.3542095e-09 8.1002481e-06 0)
(-6.3110514e-09 -1.7120285e-06 0)
(2.434299e-10 -1.2530056e-05 0)
(-2.0490478e-10 -1.2530655e-05 0)
(6.4087867e-09 -1.7134934e-06 0)
(1.3142417e-09 8.0987668e-06 0)
(1.0739288e-09 6.1437823e-06 0)
(5.0216151e-10 6.1451725e-06 0)
(-4.4238768e-09 8.101268e-06 0)
(-2.0658904e-09 -1.7122523e-06 0)
(-4.2360907e-09 -1.2531614e-05 0)
(4.3313057e-09 -1.2532214e-05 0)
(2.0666253e-09 -1.7137011e-06 0)
(4.5083607e-09 8.0997955e-06 0)
(-5.3385741e-10 6.1445409e-06 0)
(-1.017815e-09 6.1459077e-06 0)
(-1.1750954e-09 8.1022336e-06 0)
(-6.0282139e-09 -1.7124487e-06 0)
(3.7355924e-10 -1.2533136e-05 0)
(-3.0764284e-10 -1.2533725e-05 0)
(6.1449888e-09 -1.713888e-06 0)
(1.1438682e-09 8.1007782e-06 0)
(1.0534704e-09 6.1452817e-06 0)
(5.1562329e-10 6.1466116e-06 0)
(-4.2346138e-09 8.1031877e-06 0)
(-1.8079368e-09 -1.7126609e-06 0)
(-4.0886458e-09 -1.2534599e-05 0)
(4.2086772e-09 -1.2535186e-05 0)
(1.8268147e-09 -1.7140806e-06 0)
(4.3262591e-09 8.1017464e-06 0)
(-5.4670123e-10 6.1459941e-06 0)
(-9.9808279e-10 6.1472995e-06 0)
(-1.003812e-09 8.1040904e-06 0)
(-5.7582255e-09 -1.7128475e-06 0)
(4.967814e-10 -1.2536026e-05 0)
(-4.0800737e-10 -1.2536602e-05 0)
(5.8907552e-09 -1.7142526e-06 0)
(9.7985603e-10 8.1026698e-06 0)
(1.0338436e-09 6.1466896e-06 0)
(5.2849073e-10 6.1479576e-06 0)
(-4.0539749e-09 8.1049816e-06 0)
(-1.5619988e-09 -1.7130482e-06 0)
(-3.9491987e-09 -1.2537397e-05 0)
(4.0895658e-09 -1.2537969e-05 0)
(1.5957789e-09 -1.7144309e-06 0)
(4.1513444e-09 8.1035796e-06 0)
(-5.5904784e-10 6.1473575e-06 0)
(-9.7929084e-10 6.1486002e-06 0)
(-8.404812e-10 8.1058245e-06 0)
(-5.5012552e-09 -1.7132252e-06 0)
(6.1305286e-10 -1.2538734e-05 0)
(-5.0581507e-10 -1.2539294e-05 0)
(5.6463738e-09 -1.714589e-06 0)
(8.223943e-10 8.1044459e-06 0)
(1.0150678e-09 6.1480095e-06 0)
(5.4076003e-10 6.1492148e-06 0)
(-3.8820184e-09 8.1066559e-06 0)
(-1.3281561e-09 -1.7134146e-06 0)
(-3.8177188e-09 -1.2540018e-05 0)
(3.9741484e-09 -1.2540571e-05 0)
(1.3737574e-09 -1.7147539e-06 0)
(3.9837641e-09 8.1052996e-06 0)
(-5.7088311e-10 6.1486349e-06 0)
(-9.6143505e-10 6.1498144e-06 0)
(-6.8511339e-10 8.1074419e-06 0)
(-5.2572862e-09 -1.7135822e-06 0)
(7.2245462e-10 -1.2541267e-05 0)
(-6.0088787e-10 -1.2541809e-05 0)
(5.4120287e-09 -1.714899e-06 0)
(6.7159207e-10 8.1061111e-06 0)
(9.9715162e-10 6.1492452e-06 0)
(5.5243508e-10 6.1503875e-06 0)
(-3.7186945e-09 8.1082166e-06 0)
(-1.1063242e-09 -1.7137606e-06 0)
(-3.6940597e-09 -1.2542467e-05 0)
(3.8625819e-09 -1.2543e-05 0)
(1.1608919e-09 -1.7150514e-06 0)
(3.8235823e-09 8.1069109e-06 0)
(-5.8220064e-10 6.14983e-06 0)
(-9.4450241e-10 6.1509462e-06 0)
(-5.3762368e-10 8.1089487e-06 0)
(-5.0261464e-09 -1.7139189e-06 0)
(8.251639e-10 -1.2543634e-05 0)
(-6.9306717e-10 -1.2544155e-05 0)
(5.1878002e-09 -1.7151844e-06 0)
(5.2748224e-10 8.10767e-06 0)
(9.8009448e-10 6.1504003e-06 0)
(5.635263e-10 6.15148e-06 0)
(-3.5638631e-09 8.1096696e-06 0)
(-8.9628213e-10 -1.7140867e-06 0)
(-3.5779853e-09 -1.2544755e-05 0)
(3.7549928e-09 -1.2545266e-05 0)
(9.5722747e-10 -1.7153252e-06 0)
(3.6707858e-09 8.1084182e-06 0)
(-5.9300093e-10 6.1509463e-06 0)
(-9.284724e-10 6.152e-06 0)
(-3.9784744e-10 8.1103507e-06 0)
(-4.8075366e-09 -1.7142358e-06 0)
(9.214308e-10 -1.2545843e-05 0)
(-7.8222362e-10 -1.2546342e-05 0)
(4.9736696e-09 -1.715447e-06 0)
(3.9002772e-10 8.1091272e-06 0)
(9.6388713e-10 6.1514786e-06 0)
(5.7404974e-10 6.1524965e-06 0)
(-3.4173085e-09 8.1110208e-06 0)
(-6.976984e-10 -1.7143933e-06 0)
(-3.4691927e-09 -1.2546888e-05 0)
(3.6514708e-09 -1.2547376e-05 0)
(7.6271799e-10 -1.7155769e-06 0)
(3.5252915e-09 8.1098261e-06 0)
(-6.0329067e-10 6.1519876e-06 0)
(-9.1331813e-10 6.1529799e-06 0)
(-2.6555461e-10 8.1116536e-06 0)
(-4.6010555e-09 -1.7145335e-06 0)
(1.0115588e-09 -1.2547901e-05 0)
(-8.6826236e-10 -1.2548378e-05 0)
(4.7695271e-09 -1.7156884e-06 0)
(2.5912858e-10 8.1104873e-06 0)
(9.4851321e-10 6.1524838e-06 0)
(5.8402599e-10 6.1534412e-06 0)
(-3.2787542e-09 8.1122758e-06 0)
(-5.1015365e-10 -1.7146809e-06 0)
(-3.367331e-09 -1.2548874e-05 0)
(3.552066e-09 -1.2549338e-05 0)
(5.7723389e-10 -1.7158082e-06 0)
(3.3869544e-09 8.1111392e-06 0)
(-6.1308186e-10 6.1529576e-06 0)
(-8.990078e-10 6.1538899e-06 0)
(-1.4046261e-10 8.1128631e-06 0)
(-4.4062213e-09 -1.7148125e-06 0)
(1.0958884e-09 -1.2549815e-05 0)
(-9.5112554e-10 -1.2550269e-05 0)
(4.5751806e-09 -1.7159102e-06 0)
(1.3462973e-10 8.1117549e-06 0)
(9.3395019e-10 6.1534193e-06 0)
(5.934793e-10 6.1543179e-06 0)
(-3.1478754e-09 8.1134399e-06 0)
(-3.3316054e-10 -1.7149502e-06 0)
(-3.2720167e-09 -1.255072e-05 0)
(3.4567885e-09 -1.255116e-05 0)
(4.005711e-10 -1.7160206e-06 0)
(3.2555767e-09 8.1123619e-06 0)
(-6.22391e-10 6.1538597e-06 0)
(-8.855057e-10 6.1547339e-06 0)
(-2.2247878e-11 8.1139844e-06 0)
(-4.222492e-09 -1.7150735e-06 0)
(1.1747836e-09 -1.2551594e-05 0)
(-1.0307925e-09 -1.2552025e-05 0)
(4.3903664e-09 -1.7161138e-06 0)
(1.6329224e-11 8.1129343e-06 0)
(9.2017064e-10 6.1542887e-06 0)
(6.0243677e-10 6.1551304e-06 0)
(-3.0243108e-09 8.1145185e-06 0)
(-1.6618131e-10 -1.7152018e-06 0)
(-3.1828465e-09 -1.2552434e-05 0)
(3.36561e-09 -1.2552851e-05 0)
(2.3246071e-10 -1.7162154e-06 0)
(3.1309156e-09 8.1134986e-06 0)
(-6.3123833e-10 6.1546974e-06 0)
(-8.7277314e-10 6.1555155e-06 0)
(8.9443884e-11 8.1150225e-06 0)
(-4.0492817e-09 -1.7153169e-06 0)
(1.2486218e-09 -1.2553244e-05 0)
(-1.1072785e-09 -1.2553652e-05 0)
(4.214759e-09 -1.7163006e-06 0)
(-9.6014399e-11 8.1140299e-06 0)
(9.0714304e-10 6.1550953e-06 0)
(6.1092771e-10 6.1558824e-06 0)
(-2.907672e-09 8.1155163e-06 0)
(-8.6426677e-12 -1.7154362e-06 0)
(-3.0994076e-09 -1.2554022e-05 0)
(3.2784663e-09 -1.2554416e-05 0)
(7.2578827e-11 -1.716394e-06 0)
(3.012692e-09 8.1145535e-06 0)
(-6.3964703e-10 6.155474e-06 0)
(-8.6076948e-10 6.1562382e-06 0)
(1.949889e-10 8.1159821e-06 0)
(-3.8859749e-09 -1.7155435e-06 0)
(1.3177848e-09 -1.2554772e-05 0)
(-1.180632e-09 -1.2555157e-05 0)
(4.0479821e-09 -1.7164717e-06 0)
(-2.0267444e-10 8.1150457e-06 0)
(8.9483289e-10 6.1558425e-06 0)
(6.1898298e-10 6.156577e-06 0)
(-2.7975526e-09 8.116438e-06 0)
(1.4005129e-10 -1.7156542e-06 0)
(-3.0212858e-09 -1.2555492e-05 0)
(3.1952607e-09 -1.2555863e-05 0)
(-7.9443824e-11 -1.7165575e-06 0)
(2.9005974e-09 8.1155307e-06 0)
(-6.4764263e-10 6.1561926e-06 0)
(-8.4945275e-10 6.1569053e-06 0)
(2.9477763e-10 8.1168677e-06 0)
(-3.7319391e-09 -1.7157539e-06 0)
(1.3826521e-09 -1.2556184e-05 0)
(-1.2509317e-09 -1.2556547e-05 0)
(3.8896181e-09 -1.7166282e-06 0)
(-3.0394912e-10 8.1159858e-06 0)
(8.8320331e-10 6.1565331e-06 0)
(6.2663432e-10 6.1572176e-06 0)
(-2.6935354e-09 8.1172877e-06 0)
(2.8050857e-10 -1.7158562e-06 0)
(-2.9480718e-09 -1.2556849e-05 0)
(3.115868e-09 -1.2557198e-05 0)
(-2.2401277e-10 -1.716707e-06 0)
(2.7943018e-09 8.116434e-06 0)
(-6.5525252e-10 6.1568562e-06 0)
(-8.387803e-10 6.1575198e-06 0)
(3.8920818e-10 8.1176835e-06 0)
(-3.5865345e-09 -1.7159487e-06 0)
(1.4435957e-09 -1.2557487e-05 0)
(-1.3182825e-09 -1.2557829e-05 0)
(3.7392177e-09 -1.7167713e-06 0)
(-4.0015559e-10 8.1168538e-06 0)
(8.72216e-10 6.1571701e-06 0)
(6.3391411e-10 6.157807e-06 0)
(-2.5951986e-09 8.1180696e-06 0)
(4.1334018e-10 -1.716043e-06 0)
(-2.8793663e-09 -1.2558099e-05 0)
(3.0401391e-09 -1.2558427e-05 0)
(-3.6156123e-10 -1.7168435e-06 0)
(2.693459e-09 8.1172672e-06 0)
(-6.6250516e-10 6.1574676e-06 0)
(-8.2870943e-10 6.1580845e-06 0)
(4.7868102e-10 8.1184333e-06 0)
(-3.4491229e-09 -1.7161286e-06 0)
(1.5009768e-09 -1.2558685e-05 0)
(-1.3828126e-09 -1.2559007e-05 0)
(3.596308e-09 -1.7169018e-06 0)
(-4.9162388e-10 8.1176534e-06 0)
(8.6183165e-10 6.1577563e-06 0)
(6.408548e-10 6.158348e-06 0)
(-2.5021214e-09 8.1187873e-06 0)
(5.391531e-10 -1.7162152e-06 0)
(-2.8147834e-09 -1.2559247e-05 0)
(2.9679042e-09 -1.2559556e-05 0)
(-4.9254223e-10 -1.7169678e-06 0)
(2.5977129e-09 8.1180335e-06 0)
(-6.6942996e-10 6.1580294e-06 0)
(-8.1919777e-10 6.1586021e-06 0)
(5.6359423e-10 8.1191206e-06 0)
(-3.3190741e-09 -1.716294e-06 0)
(1.5551427e-09 -1.2559785e-05 0)
(-1.4446686e-09 -1.2560087e-05 0)
(3.4604008e-09 -1.7170205e-06 0)
(-5.786921e-10 8.1183879e-06 0)
(8.5201054e-10 6.1582942e-06 0)
(6.4748873e-10 6.1588431e-06 0)
(-2.4138878e-09 8.1194443e-06 0)
(6.5854409e-10 -1.7163733e-06 0)
(-2.7539528e-09 -1.2560299e-05 0)
(2.8989782e-09 -1.2560589e-05 0)
(-6.1742165e-10 -1.7170807e-06 0)
(2.5067023e-09 8.1187363e-06 0)
(-6.7605665e-10 6.158544e-06 0)
(-8.1020368e-10 6.159075e-06 0)