/*--------------------------------*- C++ -*----------------------------------*\
| =========                 |                                                 |
| \\      /  F ield         | OpenFOAM: The Open Source CFD Toolbox           |
|  \\    /   O peration     | Version:  5.x                                   |
|   \\  /    A nd           | Web:      www.OpenFOAM.org                      |
|    \\/     M anipulation  |                                                 |
\*---------------------------------------------------------------------------*/
FoamFile
{
    version     2.0;
    format      ascii;
    class       volVectorField;
    location    "6";
    object      U_0;
}
// * * * * * * * * * * * * * * * * * * * * * * * * * * * * * * * * * * * * * //

dimensions      [0 1 -1 0 0 0 0];

internalField   nonuniform List<vector> 
1920
(
(-0.00037674791 -0.0034628137 0)
(-0.00068711521 -0.0039251458 0)
(-0.0003737162 -0.0038939781 0)
(-0.00011734475 -0.0038905118 0)
(0.00011734507 -0.0038905118 0)
(0.00037371632 -0.0038939781 0)
(0.00068711509 -0.0039251458 0)
(0.00037674782 -0.0034628135 0)
(-0.00052009551 -0.0032076324 0)
(-0.0011327942 -0.0040335504 0)
(-0.00072317346 -0.0040869551 0)
(-0.00024537488 -0.0040893853 0)
(0.00024537546 -0.0040893852 0)
(0.00072317373 -0.004086955 0)
(0.0011327942 -0.0040335501 0)
(0.00052009547 -0.0032076319 0)
(-0.00043556541 -0.0027956859 0)
(-0.0011200066 -0.0040309301 0)
(-0.00080800755 -0.0042920115 0)
(-0.00029028881 -0.0043526372 0)
(0.00029028954 -0.0043526372 0)
(0.00080800792 -0.0042920114 0)
(0.0011200066 -0.0040309299 0)
(0.00043556544 -0.0027956856 0)
(-0.00032286029 -0.0023989103 0)
(-0.00094897846 -0.0039611565 0)
(-0.00075238603 -0.0044737304 0)
(-0.00028270631 -0.0046283772 0)
(0.00028270712 -0.0046283772 0)
(0.00075238648 -0.0044737305 0)
(0.00094897862 -0.0039611563 0)
(0.00032286037 -0.0023989102 0)
(-0.00022968709 -0.0020937402 0)
(-0.00074541509 -0.0038717481 0)
(-0.00063716942 -0.0046139661 0)
(-0.00024797316 -0.0048749063 0)
(0.00024797393 -0.0048749063 0)
(0.00063716991 -0.0046139662 0)
(0.00074541533 -0.0038717481 0)
(0.00022968719 -0.0020937402 0)
(-0.00015894788 -0.0018740824 0)
(-0.00055827649 -0.0037862694 0)
(-0.00050766876 -0.0047150831 0)
(-0.00020349126 -0.0050773943 0)
(0.00020349192 -0.0050773943 0)
(0.00050766925 -0.0047150831 0)
(0.0005582768 -0.0037862693 0)
(0.00015894799 -0.0018740824 0)
(-0.00010735535 -0.0017186519 0)
(-0.00040398139 -0.0037131379 0)
(-0.00038733951 -0.0047853736 0)
(-0.00015905647 -0.0052354249 0)
(0.00015905699 -0.0052354249 0)
(0.00038733995 -0.0047853736 0)
(0.00040398174 -0.0037131378 0)
(0.00010735548 -0.0017186519 0)
(-7.0998109e-05 -0.0016104248 0)
(-0.0002847773 -0.0036545013 0)
(-0.00028574215 -0.0048329732 0)
(-0.00011993201 -0.0053542948 0)
(0.00011993239 -0.0053542947 0)
(0.00028574254 -0.0048329731 0)
(0.00028477768 -0.0036545011 0)
(7.0998249e-05 -0.0016104247 0)
(-4.6166984e-05 -0.0015365424 0)
(-0.00019639735 -0.0036096591 0)
(-0.00020525319 -0.0048644986 0)
(-8.770871e-05 -0.0054410766 0)
(8.770893e-05 -0.0054410765 0)
(0.00020525352 -0.0048644984 0)
(0.00019639773 -0.0036096588 0)
(4.6167137e-05 -0.0015365423 0)
(-2.9523957e-05 -0.0014870399 0)
(-0.00013295988 -0.0035766038 0)
(-0.00014403721 -0.0048849599 0)
(-6.2640166e-05 -0.0055028598 0)
(6.2640258e-05 -0.0055028597 0)
(0.00014403747 -0.0048849596 0)
(0.00013296025 -0.0035766035 0)
(2.9524105e-05 -0.0014870398 0)
(-1.859652e-05 -0.0014544235 0)
(-8.8426315e-05 -0.0035529349 0)
(-9.9101423e-05 -0.0048979956 0)
(-4.3714741e-05 -0.005545896 0)
(4.3714715e-05 -0.0055458958 0)
(9.9101604e-05 -0.0048979953 0)
(8.8426646e-05 -0.0035529345 0)
(1.8596669e-05 -0.0014544234 0)
(-1.1501812e-05 -0.0014332689 0)
(-5.7860173e-05 -0.0035363964 0)
(-6.6879991e-05 -0.0049061441 0)
(-2.9957132e-05 -0.0055752924 0)
(2.9957013e-05 -0.0055752922 0)
(6.6880099e-05 -0.0049061437 0)
(5.7860461e-05 -0.0035363961 0)
(1.1501949e-05 -0.0014332687 0)
(-6.9887712e-06 -0.0014197701 0)
(-3.7203075e-05 -0.0035250863 0)
(-4.4360952e-05 -0.0049111385 0)
(-2.0116616e-05 -0.0055950051 0)
(2.0116424e-05 -0.0055950049 0)
(4.4360989e-05 -0.0049111381 0)
(3.7203313e-05 -0.0035250859 0)
(6.9888949e-06 -0.00141977 0)
(-4.1462812e-06 -0.0014113039 0)
(-2.3513632e-05 -0.0035175068 0)
(-2.8879242e-05 -0.0049141298 0)
(-1.3289303e-05 -0.0056079894 0)
(1.3289051e-05 -0.0056079892 0)
(2.8879225e-05 -0.0049141294 0)
(2.3513814e-05 -0.0035175065 0)
(4.1463926e-06 -0.0014113038 0)
(-2.3977869e-06 -0.0014060971 0)
(-1.4562583e-05 -0.0035125257 0)
(-1.8466317e-05 -0.0049158745 0)
(-8.6018279e-06 -0.0056163861 0)
(8.601542e-06 -0.0056163859 0)
(1.8466237e-05 -0.0049158742 0)
(1.4562718e-05 -0.0035125253 0)
(2.3978769e-06 -0.001406097 0)
(-1.3352762e-06 -0.0014029654 0)
(-8.8239634e-06 -0.003509318 0)
(-1.1561487e-05 -0.0049168562 0)
(-5.4699308e-06 -0.0056217125 0)
(5.4696066e-06 -0.0056217124 0)
(1.1561376e-05 -0.0049168559 0)
(8.8240441e-06 -0.0035093177 0)
(1.335358e-06 -0.0014029653 0)
(-7.0860065e-07 -0.0014011338 0)
(-5.1988785e-06 -0.0035072953 0)
(-7.0784902e-06 -0.0049173836 0)
(-3.3977252e-06 -0.005625019 0)
(3.3973904e-06 -0.0056250189 0)
(7.0783288e-06 -0.0049173834 0)
(5.1989255e-06 -0.0035072951 0)
(7.0865938e-07 -0.0014011337 0)
(-3.4682935e-07 -0.0014000996 0)
(-2.9596357e-06 -0.0035060511 0)
(-4.2131733e-06 -0.0049176459 0)
(-2.0615762e-06 -0.0056270217 0)
(2.0612321e-06 -0.0056270216 0)
(4.2129997e-06 -0.0049176458 0)
(2.9596411e-06 -0.003506051 0)
(3.4688453e-07 -0.0014000995 0)
(-1.4684499e-07 -0.0013995445 0)
(-1.6045939e-06 -0.0035053063 0)
(-2.4233092e-06 -0.0049177608 0)
(-1.2115907e-06 -0.005628198 0)
(1.2112496e-06 -0.005628198 0)
(2.4231115e-06 -0.0049177607 0)
(1.6045807e-06 -0.0035053063 0)
(1.4688186e-07 -0.0013995445 0)
(-4.1562265e-08 -0.0013992683 0)
(-8.0870335e-07 -0.0035048768 0)
(-1.3289368e-06 -0.0049177961 0)
(-6.8516958e-07 -0.0056288626 0)
(6.8483646e-07 -0.0056288626 0)
(1.3287424e-06 -0.0049177961 0)
(8.0866915e-07 -0.0035048769 0)
(4.1598012e-08 -0.0013992683 0)
(9.1544005e-09 -0.0013991493 0)
(-3.5722986e-07 -0.0035046401 0)
(-6.7941047e-07 -0.0049177931 0)
(-3.6610065e-07 -0.0056292175 0)
(3.6578914e-07 -0.0056292176 0)
(6.7921691e-07 -0.0049177932 0)
(3.5718923e-07 -0.0035046402 0)
(-9.1288047e-09 -0.0013991494 0)
(2.988988e-08 -0.0013991139 0)
(-1.1409619e-07 -0.0035045191 0)
(-3.0691708e-07 -0.004917773 0)
(-1.7948423e-07 -0.0056293913 0)
(1.79201e-07 -0.0056293914 0)
(3.0674245e-07 -0.0049177733 0)
(1.1405687e-07 -0.0035045193 0)
(-2.98654e-08 -0.001399114 0)
(3.4910872e-08 -0.0013991196 0)
(7.3005392e-09 -0.003504464 0)
(-1.0416885e-07 -0.0049177488 0)
(-7.3951453e-08 -0.0056294629 0)
(7.3702985e-08 -0.0056294631 0)
(1.0401936e-07 -0.004917749 0)
(-7.3382066e-09 -0.0035044644 0)
(-3.4888021e-08 -0.0013991197 0)
(3.2667002e-08 -0.0013991425 0)
(5.9317636e-08 -0.0035044456 0)
(-1.0227693e-09 -0.0049177252 0)
(-1.8653684e-08 -0.0056294807 0)
(1.8456833e-08 -0.0056294808 0)
(9.0184982e-10 -0.0049177256 0)
(-5.9335092e-08 -0.003504446 0)
(-3.2646881e-08 -0.0013991426 0)
(2.7273492e-08 -0.00139917 0)
(7.5015744e-08 -0.0035044452 0)
(4.3913819e-08 -0.0049177054 0)
(8.9279216e-09 -0.0056294721 0)
(-9.0741863e-09 -0.0056294724 0)
(-4.3988937e-08 -0.0049177058 0)
(-7.5026569e-08 -0.0035044457 0)
(-2.7248242e-08 -0.0013991702 0)
(2.1614958e-08 -0.0013991959 0)
(7.1731597e-08 -0.0035044532 0)
(5.8923395e-08 -0.0049176893 0)
(1.8949855e-08 -0.0056294533 0)
(-1.9032081e-08 -0.0056294534 0)
(-5.8961875e-08 -0.0049176899 0)
(-7.1709651e-08 -0.0035044537 0)
(-2.1594337e-08 -0.0013991961 0)
(1.6070978e-08 -0.0013992178 0)
(6.169922e-08 -0.0035044636 0)
(5.7029453e-08 -0.0049176773 0)
(2.2051293e-08 -0.0056294321 0)
(-2.2075833e-08 -0.0056294323 0)
(-5.7011875e-08 -0.0049176778 0)
(-6.1669209e-08 -0.0035044642 0)
(-1.6041382e-08 -0.0013992181 0)
(1.1871324e-08 -0.0013992351 0)
(4.8603113e-08 -0.0035044738 0)
(4.9851016e-08 -0.0049176683 0)
(1.9339808e-08 -0.0056294127 0)
(-1.92952e-08 -0.0056294129 0)
(-4.9795395e-08 -0.0049176689 0)
(-4.8535677e-08 -0.0035044744 0)
(-1.1847841e-08 -0.0013992354 0)
(8.1668887e-09 -0.0013992481 0)
(3.7287371e-08 -0.0035044825 0)
(3.9114996e-08 -0.0049176619 0)
(1.6923057e-08 -0.0056293965 0)
(-1.6821361e-08 -0.0056293968 0)
(-3.9003037e-08 -0.0049176625 0)
(-3.7213062e-08 -0.0035044832 0)
(-8.1333538e-09 -0.0013992484 0)
(5.8286419e-09 -0.0013992575 0)
(2.6643818e-08 -0.0035044895 0)
(3.0376352e-08 -0.0049176574 0)
(1.2300416e-08 -0.0056293839 0)
(-1.2134519e-08 -0.0056293841 0)
(-3.0230544e-08 -0.004917658 0)
(-2.6534219e-08 -0.0035044901 0)
(-5.8018107e-09 -0.0013992578 0)
(3.6948594e-09 -0.0013992641 0)
(1.9243442e-08 -0.0035044946 0)
(2.1343586e-08 -0.0049176543 0)
(9.9951355e-09 -0.0056293745 0)
(-9.7810864e-09 -0.0056293747 0)
(-2.1149591e-08 -0.0049176549 0)
(-1.9129954e-08 -0.0035044953 0)
(-3.65896e-09 -0.0013992644 0)
(2.633126e-09 -0.0013992685 0)
(1.2595376e-08 -0.0035044983 0)
(1.5633407e-08 -0.0049176522 0)
(6.2639301e-09 -0.0056293677 0)
(-5.9990651e-09 -0.0056293679 0)
(-1.5414208e-08 -0.0049176528 0)
(-1.2453443e-08 -0.0035044989 0)
(-2.6037056e-09 -0.0013992688 0)
(1.4660781e-09 -0.0013992714 0)
(8.7516621e-09 -0.0035045008 0)
(9.7951269e-09 -0.0049176508 0)
(5.1267036e-09 -0.005629363 0)
(-4.8286436e-09 -0.0056293633 0)
(-9.5415125e-09 -0.0049176513 0)
(-8.6098356e-09 -0.0035045014 0)
(-1.4297231e-09 -0.0013992717 0)
(1.1146015e-09 -0.0013992732 0)
(5.0106337e-09 -0.0035045024 0)
(6.9546367e-09 -0.0049176498 0)
(2.5347661e-09 -0.0056293599 0)
(-2.2040998e-09 -0.0056293601 0)
(-6.6869882e-09 -0.0049176504 0)
(-4.8495372e-09 -0.0035045029 0)
(-1.0839013e-09 -0.0013992735 0)
(4.5883297e-10 -0.0013992743 0)
(3.4053321e-09 -0.0035045033 0)
(3.4987449e-09 -0.0049176492 0)
(2.3564885e-09 -0.0056293579 0)
(-2.0099622e-09 -0.0056293581 0)
(-3.21264e-09 -0.0049176497 0)
(-3.2484441e-09 -0.0035045038 0)
(-4.2370185e-10 -0.0013992745 0)
(4.5524736e-10 -0.0013992748 0)
(1.3470909e-09 -0.0035045037 0)
(2.4904691e-09 -0.0049176488 0)
(5.6111267e-10 -0.0056293567 0)
(-2.0097918e-10 -0.0056293569 0)
(-2.2016124e-09 -0.0049176493 0)
(-1.180273e-09 -0.0035045042 0)
(-4.2461292e-10 -0.001399275 0)
(4.4411476e-11 -0.001399275 0)
(9.3512363e-10 -0.0035045038 0)
(4.3307236e-10 -0.0049176485 0)
(9.5792351e-10 -0.0056293561 0)
(-5.9830519e-10 -0.0056293563 0)
(-1.4077431e-10 -0.0049176489 0)
(-7.7592983e-10 -0.0035045042 0)
(-1.1679336e-11 -0.0013992752 0)
(1.9375584e-10 -0.0013992749 0)
(-2.6377007e-10 -0.0035045036 0)
(4.0854024e-10 -0.0049176483 0)
(-3.8052434e-10 -0.0056293558 0)
(7.3719172e-10 -0.005629356 0)
(-1.229401e-10 -0.0049176487 0)
(4.2490926e-10 -0.003504504 0)
(-1.6424424e-10 -0.0013992751 0)
(-1.0800866e-10 -0.0013992748 0)
(-1.0848379e-10 -0.0035045034 0)
(-9.2542105e-10 -0.0049176481 0)
(3.0800247e-10 -0.0056293558 0)
(3.5181654e-11 -0.0056293559 0)
(1.2024836e-09 -0.0049176485 0)
(2.5979717e-10 -0.0035045037 0)
(1.3773432e-10 -0.0013992749 0)
(1.0048216e-10 -0.0013992745 0)
(-9.050766e-10 -0.003504503 0)
(-4.815155e-10 -0.004917648 0)
(-7.934985e-10 -0.0056293559 0)
(1.1216183e-09 -0.0056293561 0)
(7.4543361e-10 -0.0049176483 0)
(1.0524861e-09 -0.0035045033 0)
(-7.2724102e-11 -0.0013992746 0)
(-1.5483081e-10 -0.0013992742 0)
(-5.0764655e-10 -0.0035045025 0)
(-1.4707093e-09 -0.0049176478 0)
(2.2657966e-11 -0.0056293562 0)
(2.8364512e-10 -0.0056293563 0)
(1.7180824e-09 -0.0049176481 0)
(6.4444312e-10 -0.0035045028 0)
(1.8144201e-10 -0.0013992743 0)
(7.1642076e-11 -0.0013992739 0)
(-1.127226e-09 -0.003504502 0)
(-8.2837567e-10 -0.0049176477 0)
(-9.6083085e-10 -0.0056293565 0)
(1.2449968e-09 -0.0056293566 0)
(1.0594892e-09 -0.004917648 0)
(1.2565325e-09 -0.0035045023 0)
(-4.5845973e-11 -0.001399274 0)
(-1.6348406e-10 -0.0013992736 0)
(-6.402046e-10 -0.0035045016 0)
(-1.6607505e-09 -0.0049176476 0)
(-1.0004491e-10 -0.0056293568 0)
(3.5870951e-10 -0.0056293569 0)
(1.8712102e-09 -0.0049176478 0)
(7.5942061e-10 -0.0035045018 0)
(1.87236e-10 -0.0013992736 0)
(6.445045e-11 -0.0013992732 0)
(-1.1836852e-09 -0.003504501 0)
(-9.4760049e-10 -0.0049176475 0)
(-1.0224449e-09 -0.0056293572 0)
(1.2564636e-09 -0.0056293572 0)
(1.1416535e-09 -0.0049176477 0)
(1.2937669e-09 -0.0035045012 0)
(-4.0495207e-11 -0.0013992733 0)
(-1.60379e-10 -0.0013992729 0)
(-6.7256348e-10 -0.0035045005 0)
(-1.7077433e-09 -0.0049176474 0)
(-1.5496715e-10 -0.0056293575 0)
(3.6365309e-10 -0.0056293576 0)
(1.8802069e-09 -0.0049176476 0)
(7.7407879e-10 -0.0035045007 0)
(1.8173709e-10 -0.0013992729 0)
(6.304176e-11 -0.0013992725 0)
(-1.1810692e-09 -0.0035045 0)
(-9.7893391e-10 -0.0049176473 0)
(-1.0407532e-09 -0.0056293579 0)
(1.2257461e-09 -0.0056293579 0)
(1.1370478e-09 -0.0049176474 0)
(1.2732056e-09 -0.0035045001 0)
(-4.0602777e-11 -0.0013992726 0)
(-1.5468227e-10 -0.0013992722 0)
(-6.7145602e-10 -0.0035044995 0)
(-1.7014407e-09 -0.0049176472 0)
(-1.8242255e-10 -0.0056293582 0)
(3.4491478e-10 -0.0056293583 0)
(1.8391927e-09 -0.0049176473 0)
(7.5716226e-10 -0.0035044996 0)
(1.7418651e-10 -0.0013992722 0)
(6.2364298e-11 -0.0013992718 0)
(-1.1599658e-09 -0.003504499 0)
(-9.7873048e-10 -0.0049176471 0)
(-1.0410105e-09 -0.0056293586 0)
(1.182923e-09 -0.0056293586 0)
(1.105509e-09 -0.0049176472 0)
(1.2368721e-09 -0.0035044991 0)
(-4.1034478e-11 -0.0013992719 0)
(-1.4901359e-10 -0.0013992715 0)
(-6.6076421e-10 -0.0035044985 0)
(-1.6762919e-09 -0.0049176469 0)
(-1.9788878e-10 -0.0056293589 0)
(3.2157607e-10 -0.005629359 0)
(1.7850967e-09 -0.004917647 0)
(7.3361776e-10 -0.0035044986 0)
(1.6717755e-10 -0.0013992715 0)
(6.1237464e-11 -0.0013992712 0)
(-1.1339297e-09 -0.003504498 0)
(-9.673861e-10 -0.0049176468 0)
(-1.0325098e-09 -0.0056293593 0)
(1.1397057e-09 -0.0056293593 0)
(1.069117e-09 -0.0049176469 0)
(1.1988959e-09 -0.0035044981 0)
(-4.0620571e-11 -0.0013992712 0)
(-1.4383028e-10 -0.0013992709 0)
(-6.4770368e-10 -0.0035044975 0)
(-1.6440743e-09 -0.0049176467 0)
(-2.0675422e-10 -0.0056293596 0)
(3.0043246e-10 -0.0056293596 0)
(1.7305674e-09 -0.0049176468 0)
(7.1094739e-10 -0.0035044976 0)
(1.610797e-10 -0.0013992709 0)
(5.9636398e-11 -0.0013992705 0)
(-1.1066235e-09 -0.003504497 0)
(-9.5132491e-10 -0.0049176466 0)
(-1.018488e-09 -0.0056293599 0)
(1.0998422e-09 -0.00562936 0)
(1.0345734e-09 -0.0049176467 0)
(1.1628768e-09 -0.0035044971 0)
(-3.940489e-11 -0.0013992706 0)
(-1.3903808e-10 -0.0013992702 0)
(-6.3382303e-10 -0.0035044965 0)
(-1.6082926e-09 -0.0049176465 0)
(-2.1085883e-10 -0.0056293603 0)
(2.8313363e-10 -0.0056293603 0)
(1.6788353e-09 -0.0049176466 0)
(6.9045526e-10 -0.0035044966 0)
(1.5568419e-10 -0.0013992702 0)
(5.7757751e-11 -0.0013992699 0)
(-1.0786534e-09 -0.003504496 0)
(-9.3224861e-10 -0.0049176464 0)
(-1.000248e-09 -0.0056293606 0)
(1.0638825e-09 -0.0056293606 0)
(1.0029441e-09 -0.0049176464 0)
(1.128973e-09 -0.0035044961 0)
(-3.7678157e-11 -0.0013992699 0)
(-1.3449295e-10 -0.0013992696 0)
(-6.1915313e-10 -0.0035044956 0)
(-1.5699119e-09 -0.0049176462 0)
(-2.1104542e-10 -0.0056293609 0)
(2.6937979e-10 -0.0056293609 0)
(1.6299289e-09 -0.0049176463 0)
(6.7164128e-10 -0.0035044956 0)
(1.5073233e-10 -0.0013992696 0)
(5.5762904e-11 -0.0013992693 0)
(-1.0499725e-09 -0.0035044951 0)
(-9.1060298e-10 -0.0049176461 0)
(-9.7862877e-10 -0.0056293612 0)
(1.0312554e-09 -0.0056293613 0)
(9.7357982e-10 -0.0049176462 0)
(1.0965223e-09 -0.0035044952 0)
(-3.5696799e-11 -0.0013992693 0)
(-1.3010999e-10 -0.001399269 0)
(-6.0354231e-10 -0.0035044946 0)
(-1.5293459e-09 -0.004917646 0)
(-2.0797812e-10 -0.0056293615 0)
(2.582845e-10 -0.0056293616 0)
(1.5830635e-09 -0.0049176461 0)
(6.5373077e-10 -0.0035044947 0)
(1.4604067e-10 -0.001399269 0)
(5.3744487e-11 -0.0013992687 0)
(-1.0205602e-09 -0.0035044941 0)
(-8.8666681e-10 -0.0049176459 0)
(-9.5440185e-10 -0.0056293618 0)
(1.0011298e-09 -0.0056293619 0)
(9.4554772e-10 -0.004917646 0)
(1.0648787e-09 -0.0035044943 0)
(-3.3634113e-11 -0.0013992687 0)
(-1.2585801e-10 -0.0013992684 0)
(-5.8696307e-10 -0.0035044937 0)
(-1.4869955e-09 -0.0049176458 0)
(-2.023074e-10 -0.0056293621 0)
(2.4892228e-10 -0.0056293622 0)
(1.5374552e-09 -0.0049176459 0)
(6.3610886e-10 -0.0035044938 0)
(1.4150304e-10 -0.0013992684 0)
(5.1747298e-11 -0.0013992681 0)
(-9.9052179e-10 -0.0035044932 0)
(-8.6078139e-10 -0.0049176457 0)
(-9.2830524e-10 -0.0056293624 0)
(9.727459e-10 -0.0056293625 0)
(9.1807699e-10 -0.0049176458 0)
(1.0336038e-09 -0.0035044934 0)
(-3.1595472e-11 -0.0013992682 0)
(-1.2173466e-10 -0.0013992678 0)
(-5.6950813e-10 -0.0035044928 0)
(-1.4433123e-09 -0.0049176456 0)
(-1.946458e-10 -0.0056293627 0)
(2.4052411e-10 -0.0056293628 0)
(1.4925369e-09 -0.0049176457 0)
(6.183826e-10 -0.003504493 0)
(1.3706628e-10 -0.0013992679 0)
(4.9792081e-11 -0.0013992675 0)
(-9.6004105e-10 -0.0035044924 0)
(-8.3333285e-10 -0.0049176455 0)
(-9.0099797e-10 -0.005629363 0)
(9.4551951e-10 -0.0056293631 0)
(8.9064424e-10 -0.0049176456 0)
(1.0024571e-09 -0.0035044925 0)
(-2.9641319e-11 -0.0013992676 0)
(-1.1774805e-10 -0.0013992673 0)
(-5.5132946e-10 -0.003504492 0)
(-1.3987501e-09 -0.0049176454 0)
(-1.8552241e-10 -0.0056293633 0)
(2.3252245e-10 -0.0056293634 0)
(1.4479692e-09 -0.0049176455 0)
(6.0034032e-10 -0.0035044921 0)
(1.3270886e-10 -0.0013992673 0)
(4.7890024e-11 -0.001399267 0)
(-9.2932443e-10 -0.0035044915 0)
(-8.0469877e-10 -0.0049176453 0)
(-8.7302741e-10 -0.0056293636 0)
(9.190501e-10 -0.0056293636 0)
(8.62945e-10 -0.0049176454 0)
(9.7134336e-10 -0.0035044917 0)
(-2.7804922e-11 -0.0013992671 0)
(-1.1390679e-10 -0.0013992667 0)
(-5.3259199e-10 -0.0035044911 0)
(-1.3537228e-09 -0.0049176452 0)
(-1.753626e-10 -0.0056293639 0)
(2.2453522e-10 -0.0056293639 0)
(1.4035935e-09 -0.0049176453 0)
(5.8189679e-10 -0.0035044913 0)
(1.2842618e-10 -0.0013992668 0)
(4.6049845e-11 -0.0013992665 0)
(-8.9856826e-10 -0.0035044907 0)
(-7.7521636e-10 -0.0049176451 0)
(-8.4482341e-10 -0.0056293641 0)
(8.9309211e-10 -0.0056293642 0)
(8.348396e-10 -0.0049176453 0)
(9.4026088e-10 -0.0035044909 0)
(-2.6103658e-11 -0.0013992665 0)
(-1.1021674e-10 -0.0013992662 0)
(-5.1345067e-10 -0.0035044904 0)
(-1.3085851e-09 -0.004917645 0)
(-1.6449259e-10 -0.0056293644 0)
(2.1632899e-10 -0.0056293645 0)
(1.3593779e-09 -0.0049176452 0)
(5.6304843e-10 -0.0035044905 0)
(1.2422237e-10 -0.0013992663 0)
(4.4279809e-11 -0.0013992659 0)
(-8.6794618e-10 -0.00350449 0)
(-7.4517304e-10 -0.0049176449 0)
(-8.1671249e-10 -0.0056293647 0)
(8.6751582e-10 -0.0056293647 0)
(8.0630148e-10 -0.0049176451 0)
(9.0926445e-10 -0.0035044902 0)
(-2.4545392e-11 -0.001399266 0)
(-1.0668008e-10 -0.0013992657 0)
(-4.9404371e-10 -0.0035044896 0)
(-1.2636332e-09 -0.0049176448 0)
(-1.5315695e-10 -0.0056293649 0)
(2.0777846e-10 -0.005629365 0)
(1.3153714e-09 -0.004917645 0)
(5.4384112e-10 -0.0035044898 0)
(1.2010495e-10 -0.0013992658 0)
(4.2588235e-11 -0.0013992655 0)
(-8.3760704e-10 -0.0035044892 0)
(-7.1481113e-10 -0.0049176447 0)
(-7.8893898e-10 -0.0056293652 0)
(8.4227045e-10 -0.0056293653 0)
(7.7737606e-10 -0.0049176449 0)
(8.7843858e-10 -0.0035044894 0)
(-2.3132517e-11 -0.0013992655 0)
(-1.032962e-10 -0.0013992652 0)
(-4.7449244e-10 -0.0035044889 0)
(-1.2191128e-09 -0.0049176446 0)
(-1.4153966e-10 -0.0056293654 0)
(1.9883173e-10 -0.0056293655 0)
(1.2716696e-09 -0.0049176448 0)
(5.243481e-10 -0.0035044891 0)
(1.1608257e-10 -0.0013992653 0)
(4.0982672e-11 -0.001399265 0)
(-8.0767788e-10 -0.0035044885 0)
(-6.8433597e-10 -0.0049176446 0)
(-7.6168627e-10 -0.0056293657 0)
(8.1735409e-10 -0.0056293658 0)
(7.4815074e-10 -0.0049176448 0)
(8.4788052e-10 -0.0035044887 0)
(-2.1864084e-11 -0.0013992651 0)
(-1.0006253e-10 -0.0013992648 0)
(-4.5490431e-10 -0.0035044882 0)
(-1.175229e-09 -0.0049176445 0)
(-1.2978191e-10 -0.0056293659 0)
(1.894836e-10 -0.005629366 0)
(1.2283898e-09 -0.0049176447 0)
(5.0465552e-10 -0.0035044884 0)
(1.121635e-10 -0.0013992648 0)
(3.9469608e-11 -0.0013992645 0)
(-7.7826708e-10 -0.0035044878 0)
(-6.5392426e-10 -0.0049176444 0)
(-7.3509343e-10 -0.0056293662 0)
(7.9279194e-10 -0.0056293663 0)
(7.1873399e-10 -0.0049176446 0)
(8.1768916e-10 -0.003504488 0)
(-2.0737003e-11 -0.0013992646 0)
(-9.697516e-11 -0.0013992643 0)
(-4.3537479e-10 -0.0035044875 0)
(-1.1321535e-09 -0.0049176443 0)
(-1.1799587e-10 -0.0056293664 0)
(1.7975635e-10 -0.0056293665 0)
(1.1856553e-09 -0.0049176446 0)
(4.8485349e-10 -0.0035044877 0)
(1.08355e-10 -0.0013992644 0)
(3.8054205e-11 -0.0013992641 0)
(-7.4946673e-10 -0.0035044872 0)
(-6.237294e-10 -0.0049176443 0)
(-7.0926717e-10 -0.0056293666 0)
(7.6862182e-10 -0.0056293667 0)
(6.8924164e-10 -0.0049176445 0)
(7.8795854e-10 -0.0035044874 0)
(-1.9746694e-11 -0.0013992642 0)
(-9.4029385e-11 -0.0013992639 0)
(-4.1598908e-10 -0.0035044868 0)
(-1.0900303e-09 -0.0049176442 0)
(-1.0627277e-10 -0.0056293669 0)
(1.6968786e-10 -0.005629367 0)
(1.1435848e-09 -0.0049176444 0)
(4.6503011e-10 -0.0035044871 0)
(1.0466304e-10 -0.001399264 0)
(3.6739918e-11 -0.0013992637 0)
(-7.2135428e-10 -0.0035044865 0)
(-5.9388464e-10 -0.0049176441 0)
(-6.8428888e-10 -0.0056293671 0)
(7.4488554e-10 -0.0056293672 0)
(6.5978861e-10 -0.0049176444 0)
(7.5877377e-10 -0.0035044868 0)
(-1.8887647e-11 -0.0013992638 0)
(-9.1220096e-11 -0.0013992635 0)
(-3.9682229e-10 -0.0035044862 0)
(-1.0489779e-09 -0.0049176441 0)
(-9.4687935e-11 -0.0056293673 0)
(1.5932404e-10 -0.0056293674 0)
(1.1022873e-09 -0.0049176443 0)
(4.4526839e-10 -0.0035044865 0)
(1.0109213e-10 -0.0013992636 0)
(3.5528773e-11 -0.0013992633 0)
(-6.939931e-10 -0.0035044859 0)
(-5.6450453e-10 -0.004917644 0)
(-6.6021889e-10 -0.0056293675 0)
(7.2162394e-10 -0.0056293676 0)
(6.3048375e-10 -0.0049176442 0)
(7.3020925e-10 -0.0035044862 0)
(-1.8153565e-11 -0.0013992634 0)
(-8.8541711e-11 -0.0013992631 0)
(-3.7793959e-10 -0.0035044857 0)
(-1.0090913e-09 -0.004917644 0)
(-8.3302861e-11 -0.0056293678 0)
(1.4871459e-10 -0.0056293679 0)
(1.0618583e-09 -0.0049176442 0)
(4.2564426e-10 -0.0035044859 0)
(9.7645407e-11 -0.0013992632 0)
(3.4421566e-11 -0.0013992629 0)
(-6.67433e-10 -0.0035044854 0)
(-5.3568532e-10 -0.0049176439 0)
(-6.3709911e-10 -0.005629368 0)
(6.9887488e-10 -0.0056293681 0)
(6.0142731e-10 -0.0049176441 0)
(7.0232787e-10 -0.0035044856 0)
(-1.7537713e-11 -0.001399263 0)
(-8.598856e-11 -0.0013992627 0)
(-3.5939601e-10 -0.0035044851 0)
(-9.7044309e-10 -0.0049176438 0)
(-7.2166296e-11 -0.0056293682 0)
(1.3791071e-10 -0.0056293683 0)
(1.0223798e-09 -0.0049176441 0)
(4.0622541e-10 -0.0035044853 0)
(9.4324799e-11 -0.0013992628 0)
(3.3417771e-11 -0.0013992626 0)
(-6.4171087e-10 -0.0035044848 0)
(-5.0750509e-10 -0.0049176438 0)
(-6.1495426e-10 -0.0056293684 0)
(6.7667217e-10 -0.0056293685 0)
(5.7270941e-10 -0.004917644 0)
(6.751808e-10 -0.003504485 0)
(-1.7033032e-11 -0.0013992626 0)
(-8.3554706e-11 -0.0013992624 0)
(-3.412363e-10 -0.0035044846 0)
(-9.3308422e-10 -0.0049176437 0)
(-6.1315076e-11 -0.0056293686 0)
(1.2696366e-10 -0.0056293687 0)
(9.8391868e-10 -0.004917644 0)
(3.8707109e-10 -0.0035044848 0)
(9.1131018e-11 -0.0013992625 0)
(3.2516009e-11 -0.0013992622 0)
(-6.1685078e-10 -0.0035044843 0)
(-4.8002435e-10 -0.0049176437 0)
(-5.9379386e-10 -0.0056293688 0)
(6.5504521e-10 -0.0056293689 0)
(5.4440933e-10 -0.0049176439 0)
(6.4880806e-10 -0.0035044845 0)
(-1.6632173e-11 -0.0013992623 0)
(-8.1234183e-11 -0.001399262 0)
(-3.2349515e-10 -0.0035044841 0)
(-8.9704564e-10 -0.0049176437 0)
(-5.0774509e-11 -0.005629369 0)
(1.1592361e-10 -0.0056293691 0)
(9.4652837e-10 -0.0049176439 0)
(3.6823204e-10 -0.0035044843 0)
(8.8063846e-11 -0.0013992621 0)
(3.1713967e-11 -0.0013992619 0)
(-5.9286552e-10 -0.0035044838 0)
(-4.5328681e-10 -0.0049176436 0)
(-5.7361345e-10 -0.0056293692 0)
(6.3401897e-10 -0.0056293693 0)
(5.1659555e-10 -0.0049176438 0)
(6.2323911e-10 -0.003504484 0)
(-1.6327857e-11 -0.001399262 0)
(-7.9021046e-11 -0.0013992617 0)
(-3.0619794e-10 -0.0035044836 0)
(-8.6233997e-10 -0.0049176436 0)
(-4.0559725e-11 -0.0056293694 0)
(1.0483912e-10 -0.0056293694 0)
(9.1024879e-10 -0.0049176438 0)
(3.4975055e-10 -0.0035044838 0)
(8.5122103e-11 -0.0013992618 0)
(3.100875e-11 -0.0013992616 0)
(-5.6975729e-10 -0.0035044834 0)
(-4.2732089e-10 -0.0049176435 0)
(-5.5439667e-10 -0.0056293695 0)
(6.1361404e-10 -0.0056293696 0)
(4.8932581e-10 -0.0049176437 0)
(5.9849364e-10 -0.0035044836 0)
(-1.6112804e-11 -0.0013992617 0)
(-7.6909485e-11 -0.0013992614 0)
(-2.8936128e-10 -0.0035044831 0)
(-8.2896387e-10 -0.0049176435 0)
(-3.0676578e-11 -0.0056293697 0)
(9.3756114e-11 -0.0056293698 0)
(8.7510752e-10 -0.0049176437 0)
(3.3166109e-10 -0.0035044833 0)
(8.2303909e-11 -0.0013992615 0)
(3.0396834e-11 -0.0013992613 0)
(-5.4751958e-10 -0.0035044829 0)
(-4.021414e-10 -0.0049176435 0)
(-5.3611711e-10 -0.0056293699 0)
(5.9384658e-10 -0.00562937 0)
(4.6264727e-10 -0.0049176437 0)
(5.7458242e-10 -0.0035044831 0)
(-1.5979809e-11 -0.0013992614 0)
(-7.4893746e-11 -0.0013992611 0)
(-2.7299451e-10 -0.0035044827 0)
(-7.9690013e-10 -0.0049176434 0)
(-2.1123267e-11 -0.0056293701 0)
(8.2717367e-11 -0.0056293701 0)
(8.4112066e-10 -0.0049176436 0)
(3.1399038e-10 -0.0035044829 0)
(7.9606773e-11 -0.0013992612 0)
(2.9874357e-11 -0.001399261 0)
(-5.2613797e-10 -0.0035044825 0)
(-3.7775131e-10 -0.0049176434 0)
(-5.1874056e-10 -0.0056293702 0)
(5.7472813e-10 -0.0056293703 0)
(4.3659722e-10 -0.0049176436 0)
(5.5150817e-10 -0.0035044827 0)
(-1.592209e-11 -0.0013992611 0)
(-7.2968309e-11 -0.0013992609 0)
(-2.5710014e-10 -0.0035044823 0)
(-7.6612011e-10 -0.0049176434 0)
(-1.1891964e-11 -0.0056293704 0)
(7.1762025e-11 -0.0056293705 0)
(8.0829394e-10 -0.0049176435 0)
(2.9675819e-10 -0.0035044825 0)
(7.7027472e-11 -0.0013992609 0)
(2.943709e-11 -0.0013992607 0)
(-5.0559187e-10 -0.0035044821 0)
(-3.5414393e-10 -0.0049176433 0)
(-5.0222684e-10 -0.0056293706 0)
(5.5626585e-10 -0.0056293706 0)
(4.1120363e-10 -0.0049176435 0)
(5.2926644e-10 -0.0035044823 0)
(-1.5933095e-11 -0.0013992608 0)
(-7.1127852e-11 -0.0013992606 0)
(-2.4167534e-10 -0.0035044819 0)
(-7.3658627e-10 -0.0049176433 0)
(-2.9702793e-12 -0.0056293707 0)
(6.0925134e-11 -0.0056293708 0)
(7.7662364e-10 -0.0049176435 0)
(2.7997808e-10 -0.0035044821 0)
(7.456247e-11 -0.0013992607 0)
(2.9080536e-11 -0.0013992605 0)
(-4.8585565e-10 -0.0035044817 0)
(-3.3130489e-10 -0.0049176433 0)
(-4.865318e-10 -0.0056293709 0)
(5.3846217e-10 -0.0056293709 0)
(3.8648597e-10 -0.0049176434 0)
(5.0784691e-10 -0.0035044819 0)
(-1.6006537e-11 -0.0013992605 0)
(-6.9367261e-11 -0.0013992603 0)
(-2.2671301e-10 -0.0035044816 0)
(-7.082543e-10 -0.0049176432 0)
(5.6571744e-12 -0.005629371 0)
(5.0237421e-11 -0.0056293711 0)
(7.4609793e-10 -0.0049176434 0)
(2.6365822e-10 -0.0035044817 0)
(7.2207879e-11 -0.0013992604 0)
(2.8800063e-11 -0.0013992602 0)
(-4.6690036e-10 -0.0035044814 0)
(-3.0921385e-10 -0.0049176432 0)
(-4.7160896e-10 -0.0056293712 0)
(5.2131545e-10 -0.0056293712 0)
(3.6245604e-10 -0.0049176434 0)
(4.872341e-10 -0.0035044815 0)
(-1.6136511e-11 -0.0013992603 0)
(-6.7681685e-11 -0.0013992601 0)
(-2.1220284e-10 -0.0035044812 0)
(-6.8107516e-10 -0.0049176432 0)
(1.4007874e-11 -0.0056293713 0)
(3.9725201e-11 -0.0056293714 0)
(7.1669788e-10 -0.0049176433 0)
(2.4780163e-10 -0.0035044814 0)
(6.9959492e-11 -0.0013992602 0)
(2.8590922e-11 -0.00139926 0)
(-4.486944e-10 -0.003504481 0)
(-2.8784646e-10 -0.0049176432 0)
(-4.5741083e-10 -0.0056293715 0)
(5.0481998e-10 -0.0056293715 0)
(3.3911876e-10 -0.0049176433 0)
(4.6740817e-10 -0.0035044812 0)
(-1.6317485e-11 -0.0013992601 0)
(-6.6066605e-11 -0.0013992599 0)
(-1.9813211e-10 -0.0035044809 0)
(-6.549969e-10 -0.0049176431 0)
(2.2099832e-11 -0.0056293716 0)
(2.9410456e-11 -0.0056293717 0)
(6.8839874e-10 -0.0049176433 0)
(2.3240736e-10 -0.003504481 0)
(6.7812836e-11 -0.00139926 0)
(2.8448305e-11 -0.0013992598 0)
(-4.3120468e-10 -0.0035044807 0)
(-2.671755e-10 -0.0049176431 0)
(-4.438904e-10 -0.0056293717 0)
(4.8896628e-10 -0.0056293718 0)
(3.1647326e-10 -0.0049176433 0)
(4.4834597e-10 -0.0035044809 0)
(-1.6544301e-11 -0.0013992598 0)
(-6.4517713e-11 -0.0013992597 0)
(-1.8448647e-10 -0.0035044806 0)
(-6.2996604e-10 -0.0049176431 0)
(2.9951194e-11 -0.0056293719 0)
(1.9310902e-11 -0.0056293719 0)
(6.6117092e-10 -0.0049176432 0)
(2.1747103e-10 -0.0035044807 0)
(6.5763362e-11 -0.0013992597 0)
(2.8367472e-11 -0.0013992596 0)
(-4.1439752e-10 -0.0035044804 0)
(-2.4717219e-10 -0.0049176431 0)
(-4.3100158e-10 -0.005629372 0)
(4.7374158e-10 -0.0056293721 0)
(2.9451384e-10 -0.0049176432 0)
(4.3002199e-10 -0.0035044806 0)
(-1.6812142e-11 -0.0013992596 0)
(-6.303098e-11 -0.0013992595 0)
(-1.7125074e-10 -0.0035044803 0)
(-6.0592892e-10 -0.0049176431 0)
(3.7579332e-11 -0.0056293721 0)
(9.4404462e-12 -0.0056293722 0)
(6.3498124e-10 -0.0049176432 0)
(2.029857e-10 -0.0035044804 0)
(6.3806448e-11 -0.0013992595 0)
(2.8343631e-11 -0.0013992594 0)
(-3.9823922e-10 -0.0035044801 0)
(-2.2780736e-10 -0.004917643 0)
(-4.187003e-10 -0.0056293723 0)
(4.591304e-10 -0.0056293723 0)
(2.7323071e-10 -0.0049176432 0)
(4.1240883e-10 -0.0035044803 0)
(-1.7116541e-11 -0.0013992594 0)
(-6.160261e-11 -0.0013992593 0)
(-1.5840927e-10 -0.00350448 0)
(-5.8283272e-10 -0.004917643 0)
(4.5000372e-11 -0.0056293724 0)
(-1.9044397e-13 -0.0056293724 0)
(6.0979365e-10 -0.0049176431 0)
(1.8894217e-10 -0.0035044801 0)
(6.1937395e-11 -0.0013992593 0)
(2.8372235e-11 -0.0013992592 0)
(-3.8269664e-10 -0.0035044798 0)
(-2.0905216e-10 -0.004917643 0)
(-4.0694486e-10 -0.0056293725 0)
(4.4511476e-10 -0.0056293725 0)
(2.5261103e-10 -0.0049176431 0)
(3.9547798e-10 -0.00350448 0)
(-1.7453334e-11 -0.0013992592 0)
(-6.0229061e-11 -0.0013992591 0)
(-1.4594667e-10 -0.0035044797 0)
(-5.6062618e-10 -0.004917643 0)
(5.2228829e-11 -0.0056293726 0)
(-9.5745486e-12 -0.0056293727 0)
(5.8557036e-10 -0.0049176431 0)
(1.7532972e-10 -0.0035044798 0)
(6.01516e-11 -0.0013992592 0)
(2.844869e-11 -0.001399259 0)
(-3.6773768e-10 -0.0035044796 0)
(-1.9087883e-10 -0.004917643 0)
(-3.9569616e-10 -0.0056293727 0)
(4.3167488e-10 -0.0056293728 0)
(2.3263954e-10 -0.0049176431 0)
(3.7920037e-10 -0.0035044797 0)
(-1.7818631e-11 -0.0013992591 0)
(-5.8906993e-11 -0.0013992589 0)
(-1.3384799e-10 -0.0035044795 0)
(-5.3926021e-10 -0.0049176429 0)
(5.9277597e-11 -0.0056293728 0)
(-1.8707225e-11 -0.0056293729 0)
(5.6227259e-10 -0.0049176431 0)