/*--------------------------------*- C++ -*----------------------------------*\
| =========                 |                                                 |
| \\      /  F ield         | OpenFOAM: The Open Source CFD Toolbox           |
|  \\    /   O peration     | Version:  5.x                                   |
|   \\  /    A nd           | Web:      www.OpenFOAM.org                      |
|    \\/     M anipulation  |                                                 |
\*---------------------------------------------------------------------------*/
FoamFile
{
    version     2.0;
    format      ascii;
    class       volScalarField;
    location    "1";
    object      p;
}
// * * * * * * * * * * * * * * * * * * * * * * * * * * * * * * * * * * * * * //

dimensions      [0 2 -2 0 0 0 0];

internalField   nonuniform List<scalar> 
1920
(
-3408.3242
-3408.3302
-3408.32
-3408.3066
-3408.3066
-3408.32
-3408.3302
-3408.3242
-3408.3207
-3408.3274
-3408.3223
-3408.3136
-3408.3136
-3408.3223
-3408.3274
-3408.3207
-3408.3175
-3408.3254
-3408.3255
-3408.3212
-3408.3212
-3408.3255
-3408.3254
-3408.3175
-3408.3161
-3408.3258
-3408.3292
-3408.3279
-3408.3279
-3408.3292
-3408.3258
-3408.3161
-3408.3175
-3408.3283
-3408.334
-3408.3343
-3408.3343
-3408.334
-3408.3283
-3408.3175
-3408.3213
-3408.3328
-3408.3397
-3408.3412
-3408.3412
-3408.3397
-3408.3328
-3408.3213
-3408.3275
-3408.3389
-3408.3465
-3408.3486
-3408.3486
-3408.3465
-3408.3389
-3408.3275
-3408.3357
-3408.3467
-3408.3543
-3408.3568
-3408.3568
-3408.3543
-3408.3468
-3408.3357
-3408.3458
-3408.3559
-3408.3632
-3408.3658
-3408.3658
-3408.3632
-3408.3559
-3408.3458
-3408.3572
-3408.3663
-3408.373
-3408.3755
-3408.3755
-3408.373
-3408.3663
-3408.3572
-3408.3698
-3408.3777
-3408.3836
-3408.386
-3408.386
-3408.3836
-3408.3777
-3408.3698
-3408.3832
-3408.3899
-3408.3949
-3408.397
-3408.397
-3408.3949
-3408.3899
-3408.3832
-3408.3972
-3408.4026
-3408.4069
-3408.4087
-3408.4087
-3408.4069
-3408.4026
-3408.3972
-3408.4115
-3408.4159
-3408.4193
-3408.4208
-3408.4208
-3408.4193
-3408.4159
-3408.4115
-3408.426
-3408.4293
-3408.432
-3408.4333
-3408.4333
-3408.432
-3408.4294
-3408.426
-3408.4405
-3408.443
-3408.4451
-3408.4461
-3408.4461
-3408.4451
-3408.443
-3408.4405
-3408.455
-3408.4568
-3408.4583
-3408.4591
-3408.4591
-3408.4584
-3408.4568
-3408.455
-3408.4694
-3408.4706
-3408.4718
-3408.4723
-3408.4724
-3408.4718
-3408.4707
-3408.4694
-3408.4836
-3408.4845
-3408.4853
-3408.4857
-3408.4857
-3408.4853
-3408.4845
-3408.4836
-3408.4978
-3408.4983
-3408.4989
-3408.4992
-3408.4992
-3408.4989
-3408.4983
-3408.4978
-3408.5118
-3408.5121
-3408.5125
-3408.5127
-3408.5127
-3408.5125
-3408.5121
-3408.5118
-3408.5257
-3408.5259
-3408.5261
-3408.5263
-3408.5263
-3408.5261
-3408.5259
-3408.5257
-3408.5395
-3408.5396
-3408.5398
-3408.5399
-3408.5399
-3408.5398
-3408.5397
-3408.5395
-3408.5533
-3408.5534
-3408.5535
-3408.5535
-3408.5535
-3408.5535
-3408.5534
-3408.5533
-3408.567
-3408.5671
-3408.5671
-3408.5672
-3408.5672
-3408.5671
-3408.5671
-3408.567
-3408.5807
-3408.5807
-3408.5808
-3408.5808
-3408.5808
-3408.5808
-3408.5808
-3408.5807
-3408.5944
-3408.5944
-3408.5945
-3408.5945
-3408.5945
-3408.5945
-3408.5944
-3408.5944
-3408.6081
-3408.6081
-3408.6081
-3408.6081
-3408.6081
-3408.6081
-3408.6081
-3408.6081
-3408.6217
-3408.6218
-3408.6218
-3408.6218
-3408.6218
-3408.6218
-3408.6218
-3408.6217
-3408.6354
-3408.6354
-3408.6354
-3408.6355
-3408.6355
-3408.6354
-3408.6354
-3408.6354
-3408.649
-3408.6491
-3408.6491
-3408.6491
-3408.6491
-3408.6491
-3408.6491
-3408.649
-3408.6627
-3408.6627
-3408.6628
-3408.6628
-3408.6628
-3408.6628
-3408.6627
-3408.6627
-3408.6764
-3408.6764
-3408.6764
-3408.6765
-3408.6765
-3408.6764
-3408.6764
-3408.6764
-3408.69
-3408.6901
-3408.6901
-3408.6901
-3408.6901
-3408.6901
-3408.6901
-3408.69
-3408.7037
-3408.7037
-3408.7038
-3408.7038
-3408.7038
-3408.7038
-3408.7037
-3408.7037
-3408.7174
-3408.7174
-3408.7175
-3408.7175
-3408.7175
-3408.7174
-3408.7174
-3408.7174
-3408.731
-3408.7311
-3408.7311
-3408.7311
-3408.7311
-3408.7311
-3408.7311
-3408.731
-3408.7447
-3408.7448
-3408.7448
-3408.7448
-3408.7448
-3408.7448
-3408.7448
-3408.7447
-3408.7584
-3408.7585
-3408.7585
-3408.7585
-3408.7585
-3408.7585
-3408.7584
-3408.7584
-3408.7721
-3408.7721
-3408.7722
-3408.7722
-3408.7722
-3408.7722
-3408.7721
-3408.7721
-3408.7858
-3408.7858
-3408.7859
-3408.7859
-3408.7859
-3408.7859
-3408.7858
-3408.7858
-3408.7995
-3408.7995
-3408.7996
-3408.7996
-3408.7996
-3408.7995
-3408.7995
-3408.7995
-3408.8132
-3408.8132
-3408.8132
-3408.8133
-3408.8133
-3408.8132
-3408.8132
-3408.8131
-3408.8269
-3408.8269
-3408.8269
-3408.827
-3408.8269
-3408.8269
-3408.8269
-3408.8269
-3408.8406
-3408.8406
-3408.8406
-3408.8406
-3408.8406
-3408.8406
-3408.8406
-3408.8405
-3408.8543
-3408.8543
-3408.8543
-3408.8543
-3408.8543
-3408.8543
-3408.8543
-3408.8543
-3408.868
-3408.868
-3408.868
-3408.868
-3408.868
-3408.868
-3408.868
-3408.868
-3408.8817
-3408.8817
-3408.8817
-3408.8818
-3408.8818
-3408.8817
-3408.8817
-3408.8817
-3408.8954
-3408.8954
-3408.8954
-3408.8955
-3408.8955
-3408.8954
-3408.8954
-3408.8954
-3408.9091
-3408.9091
-3408.9092
-3408.9092
-3408.9092
-3408.9092
-3408.9091
-3408.9091
-3408.9228
-3408.9228
-3408.9229
-3408.9229
-3408.9229
-3408.9229
-3408.9228
-3408.9228
-3408.9365
-3408.9365
-3408.9366
-3408.9366
-3408.9366
-3408.9366
-3408.9365
-3408.9365
-3408.9502
-3408.9503
-3408.9503
-3408.9503
-3408.9503
-3408.9503
-3408.9503
-3408.9502
-3408.9639
-3408.964
-3408.964
-3408.964
-3408.964
-3408.964
-3408.964
-3408.9639
-3408.9777
-3408.9777
-3408.9777
-3408.9777
-3408.9777
-3408.9777
-3408.9777
-3408.9777
-3408.9914
-3408.9914
-3408.9914
-3408.9915
-3408.9915
-3408.9914
-3408.9914
-3408.9914
-3409.0051
-3409.0051
-3409.0052
-3409.0052
-3409.0052
-3409.0052
-3409.0051
-3409.0051
-3409.0188
-3409.0189
-3409.0189
-3409.0189
-3409.0189
-3409.0189
-3409.0189
-3409.0188
-3409.0326
-3409.0326
-3409.0326
-3409.0326
-3409.0326
-3409.0326
-3409.0326
-3409.0326
-3409.0463
-3409.0463
-3409.0463
-3409.0464
-3409.0464
-3409.0463
-3409.0463
-3409.0463
-3409.06
-3409.0601
-3409.0601
-3409.0601
-3409.0601
-3409.0601
-3409.0601
-3409.06
-3409.0738
-3409.0738
-3409.0738
-3409.0738
-3409.0738
-3409.0738
-3409.0738
-3409.0738
-3409.0875
-3409.0875
-3409.0875
-3409.0876
-3409.0876
-3409.0875
-3409.0875
-3409.0875
-3409.1012
-3409.1012
-3409.1013
-3409.1013
-3409.1013
-3409.1013
-3409.1012
-3409.1012
-3409.115
-3409.115
-3409.115
-3409.115
-3409.115
-3409.115
-3409.115
-3409.115
-3409.1287
-3409.1287
-3409.1287
-3409.1288
-3409.1288
-3409.1287
-3409.1287
-3409.1287
-3409.1424
-3409.1425
-3409.1425
-3409.1425
-3409.1425
-3409.1425
-3409.1425
-3409.1424
-3409.1562
-3409.1562
-3409.1562
-3409.1562
-3409.1562
-3409.1562
-3409.1562
-3409.1562
-3409.1699
-3409.1699
-3409.17
-3409.17
-3409.17
-3409.17
-3409.1699
-3409.1699
-3409.1837
-3409.1837
-3409.1837
-3409.1837
-3409.1837
-3409.1837
-3409.1837
-3409.1837
-3409.1974
-3409.1974
-3409.1974
-3409.1975
-3409.1975
-3409.1974
-3409.1974
-3409.1974
-3409.2112
-3409.2112
-3409.2112
-3409.2112
-3409.2112
-3409.2112
-3409.2112
-3409.2112
-3409.2249
-3409.2249
-3409.2249
-3409.2249
-3409.2249
-3409.2249
-3409.2249
-3409.2249
-3409.2386
-3409.2387
-3409.2387
-3409.2387
-3409.2387
-3409.2387
-3409.2387
-3409.2386
-3409.2524
-3409.2524
-3409.2524
-3409.2524
-3409.2524
-3409.2524
-3409.2524
-3409.2524
-3409.2661
-3409.2662
-3409.2662
-3409.2662
-3409.2662
-3409.2662
-3409.2662
-3409.2661
-3409.2799
-3409.2799
-3409.2799
-3409.2799
-3409.2799
-3409.2799
-3409.2799
-3409.2799
-3409.2937
-3409.2937
-3409.2937
-3409.2937
-3409.2937
-3409.2937
-3409.2937
-3409.2936
-3409.3074
-3409.3074
-3409.3074
-3409.3074
-3409.3074
-3409.3074
-3409.3074
-3409.3074
-3409.3212
-3409.3212
-3409.3212
-3409.3212
-3409.3212
-3409.3212
-3409.3212
-3409.3212
-3409.3349
-3409.3349
-3409.3349
-3409.3349
-3409.3349
-3409.3349
-3409.3349
-3409.3349
-3409.3487
-3409.3487
-3409.3487
-3409.3487
-3409.3487
-3409.3487
-3409.3487
-3409.3487
-3409.3624
-3409.3624
-3409.3624
-3409.3625
-3409.3625
-3409.3624
-3409.3624
-3409.3624
-3409.3762
-3409.3762
-3409.3762
-3409.3762
-3409.3762
-3409.3762
-3409.3762
-3409.3762
-3409.3899
-3409.39
-3409.39
-3409.39
-3409.39
-3409.39
-3409.39
-3409.3899
-3409.4037
-3409.4037
-3409.4037
-3409.4037
-3409.4037
-3409.4037
-3409.4037
-3409.4037
-3409.4174
-3409.4175
-3409.4175
-3409.4175
-3409.4175
-3409.4175
-3409.4175
-3409.4174
-3409.4312
-3409.4312
-3409.4312
-3409.4312
-3409.4312
-3409.4312
-3409.4312
-3409.4312
-3409.445
-3409.445
-3409.445
-3409.445
-3409.445
-3409.445
-3409.445
-3409.445
-3409.4587
-3409.4587
-3409.4588
-3409.4588
-3409.4588
-3409.4588
-3409.4587
-3409.4587
-3409.4725
-3409.4725
-3409.4725
-3409.4725
-3409.4725
-3409.4725
-3409.4725
-3409.4725
-3409.4863
-3409.4863
-3409.4863
-3409.4863
-3409.4863
-3409.4863
-3409.4863
-3409.4862
-3409.5
-3409.5
-3409.5
-3409.5
-3409.5
-3409.5
-3409.5
-3409.5
-3409.5138
-3409.5138
-3409.5138
-3409.5138
-3409.5138
-3409.5138
-3409.5138
-3409.5138
-3409.5275
-3409.5276
-3409.5276
-3409.5276
-3409.5276
-3409.5276
-3409.5275
-3409.5275
-3409.5413
-3409.5413
-3409.5413
-3409.5413
-3409.5413
-3409.5413
-3409.5413
-3409.5413
-3409.5551
-3409.5551
-3409.5551
-3409.5551
-3409.5551
-3409.5551
-3409.5551
-3409.5551
-3409.5688
-3409.5688
-3409.5688
-3409.5688
-3409.5688
-3409.5688
-3409.5688
-3409.5688
-3409.5826
-3409.5826
-3409.5826
-3409.5826
-3409.5826
-3409.5826
-3409.5826
-3409.5826
-3409.5964
-3409.5964
-3409.5964
-3409.5964
-3409.5964
-3409.5964
-3409.5964
-3409.5964
-3409.6101
-3409.6101
-3409.6101
-3409.6101
-3409.6101
-3409.6101
-3409.6101
-3409.6101
-3409.6239
-3409.6239
-3409.6239
-3409.6239
-3409.6239
-3409.6239
-3409.6239
-3409.6239
-3409.6376
-3409.6377
-3409.6377
-3409.6377
-3409.6377
-3409.6377
-3409.6377
-3409.6376
-3409.6514
-3409.6514
-3409.6514
-3409.6514
-3409.6514
-3409.6514
-3409.6514
-3409.6514
-3409.6652
-3409.6652
-3409.6652
-3409.6652
-3409.6652
-3409.6652
-3409.6652
-3409.6652
-3409.6789
-3409.6789
-3409.679
-3409.679
-3409.679
-3409.679
-3409.6789
-3409.6789
-3409.6927
-3409.6927
-3409.6927
-3409.6927
-3409.6927
-3409.6927
-3409.6927
-3409.6927
-3409.7065
-3409.7065
-3409.7065
-3409.7065
-3409.7065
-3409.7065
-3409.7065
-3409.7065
-3409.7202
-3409.7203
-3409.7203
-3409.7203
-3409.7203
-3409.7203
-3409.7202
-3409.7202
-3409.734
-3409.734
-3409.734
-3409.734
-3409.734
-3409.734
-3409.734
-3409.734
-3409.7478
-3409.7478
-3409.7478
-3409.7478
-3409.7478
-3409.7478
-3409.7478
-3409.7478
-3409.7615
-3409.7615
-3409.7616
-3409.7616
-3409.7616
-3409.7616
-3409.7615
-3409.7615
-3409.7753
-3409.7753
-3409.7753
-3409.7753
-3409.7753
-3409.7753
-3409.7753
-3409.7753
-3409.7891
-3409.7891
-3409.7891
-3409.7891
-3409.7891
-3409.7891
-3409.7891
-3409.7891
-3409.8028
-3409.8028
-3409.8028
-3409.8029
-3409.8029
-3409.8028
-3409.8028
-3409.8028
-3409.8166
-3409.8166
-3409.8166
-3409.8166
-3409.8166
-3409.8166
-3409.8166
-3409.8166
-3409.8304
-3409.8304
-3409.8304
-3409.8304
-3409.8304
-3409.8304
-3409.8304
-3409.8304
-3409.8441
-3409.8441
-3409.8441
-3409.8441
-3409.8441
-3409.8441
-3409.8441
-3409.8441
-3409.8579
-3409.8579
-3409.8579
-3409.8579
-3409.8579
-3409.8579
-3409.8579
-3409.8579
-3409.8717
-3409.8717
-3409.8717
-3409.8717
-3409.8717
-3409.8717
-3409.8717
-3409.8717
-3409.8854
-3409.8854
-3409.8854
-3409.8854
-3409.8854
-3409.8854
-3409.8854
-3409.8854
-3409.8992
-3409.8992
-3409.8992
-3409.8992
-3409.8992
-3409.8992
-3409.8992
-3409.8992
-3409.913
-3409.913
-3409.913
-3409.913
-3409.913
-3409.913
-3409.913
-3409.913
-3409.9267
-3409.9267
-3409.9267
-3409.9267
-3409.9267
-3409.9267
-3409.9267
-3409.9267
-3409.9405
-3409.9405
-3409.9405
-3409.9405
-3409.9405
-3409.9405
-3409.9405
-3409.9405
-3409.9543
-3409.9543
-3409.9543
-3409.9543
-3409.9543
-3409.9543
-3409.9543
-3409.9543
-3409.968
-3409.968
-3409.968
-3409.968
-3409.968
-3409.968
-3409.968
-3409.968
-3409.9818
-3409.9818
-3409.9818
-3409.9818
-3409.9818
-3409.9818
-3409.9818
-3409.9818
-3409.9956
-3409.9956
-3409.9956
-3409.9956
-3409.9956
-3409.9956
-3409.9956
-3409.9956
-3410.0093
-3410.0093
-3410.0093
-3410.0093
-3410.0093
-3410.0093
-3410.0093
-3410.0093
-3410.0231
-3410.0231
-3410.0231
-3410.0231
-3410.0231
-3410.0231
-3410.0231
-3410.0231
-3410.0369
-3410.0369
-3410.0369
-3410.0369
-3410.0369
-3410.0369
-3410.0369
-3410.0369
-3410.0506
-3410.0506
-3410.0506
-3410.0506
-3410.0506
-3410.0506
-3410.0506
-3410.0506
-3410.0644
-3410.0644
-3410.0644
-3410.0644
-3410.0644
-3410.0644
-3410.0644
-3410.0644
-3410.0782
-3410.0782
-3410.0782
-3410.0782
-3410.0782
-3410.0782
-3410.0782
-3410.0782
-3410.0919
-3410.0919
-3410.0919
-3410.0919
-3410.0919
-3410.0919
-3410.0919
-3410.0919
-3410.1057
-3410.1057
-3410.1057
-3410.1057
-3410.1057
-3410.1057
-3410.1057
-3410.1057
-3410.1195
-3410.1195
-3410.1195
-3410.1195
-3410.1195
-3410.1195
-3410.1195
-3410.1195
-3410.1332
-3410.1332
-3410.1332
-3410.1332
-3410.1332
-3410.1332
-3410.1332
-3410.1332
-3410.147
-3410.147
-3410.147
-3410.147
-3410.147
-3410.147
-3410.147
-3410.147
-3410.1608
-3410.1608
-3410.1608
-3410.1608
-3410.1608
-3410.1608
-3410.1608
-3410.1608
-3410.1745
-3410.1745
-3410.1745
-3410.1745
-3410.1745
-3410.1745
-3410.1745
-3410.1745
-3410.1883
-3410.1883
-3410.1883
-3410.1883
-3410.1883
-3410.1883
-3410.1883
-3410.1883
-3410.2021
-3410.202
-3410.202
-3410.202
-3410.202
-3410.202
-3410.202
-3410.2021
-3410.2158
-3410.2158
-3410.2158
-3410.2158
-3410.2158
-3410.2158
-3410.2158
-3410.2158
-3410.2296
-3410.2296
-3410.2296
-3410.2296
-3410.2296
-3410.2296
-3410.2296
-3410.2296
-3410.2433
-3410.2433
-3410.2433
-3410.2433
-3410.2433
-3410.2433
-3410.2433
-3410.2433
-3410.2571
-3410.2571
-3410.2571
-3410.2571
-3410.2571
-3410.2571
-3410.2571
-3410.2571
-3410.2709
-3410.2709
-3410.2709
-3410.2709
-3410.2709
-3410.2709
-3410.2709
-3410.2709
-3410.2846
-3410.2846
-3410.2846
-3410.2846
-3410.2846
-3410.2846
-3410.2846
-3410.2846
-3410.2984
-3410.2984
-3410.2984
-3410.2984
-3410.2984
-3410.2984
-3410.2984
-3410.2984
-3410.3121
-3410.3121
-3410.3121
-3410.3121
-3410.3121
-3410.3121
-3410.3121
-3410.3121
-3410.3259
-3410.3259
-3410.3259
-3410.3259
-3410.3259
-3410.3259
-3410.3259
-3410.3259
-3410.3397
-3410.3397
-3410.3397
-3410.3397
-3410.3397
-3410.3397
-3410.3397
-3410.3397
-3410.3534
-3410.3534
-3410.3534
-3410.3534
-3410.3534
-3410.3534
-3410.3534
-3410.3534
-3410.3672
-3410.3672
-3410.3672
-3410.3672
-3410.3672
-3410.3672
-3410.3672
-3410.3672
-3410.3809
-3410.3809
-3410.3809
-3410.3809
-3410.3809
-3410.3809
-3410.3809
-3410.3809
-3410.3947
-3410.3947
-3410.3947
-3410.3947
-3410.3947
-3410.3947
-3410.3947
-3410.3947
-3410.4085
-3410.4085
-3410.4085
-3410.4085
-3410.4085
-3410.4085
-3410.4085
-3410.4085
-3410.4222
-3410.4222
-3410.4222
-3410.4222
-3410.4222
-3410.4222
-3410.4222
-3410.4222
-3410.436
-3410.436
-3410.436
-3410.436
-3410.436
-3410.436
-3410.436
-3410.436
-3410.4497
-3410.4497
-3410.4497
-3410.4497
-3410.4497
-3410.4497
-3410.4497
-3410.4497
-3410.4635
-3410.4635
-3410.4635
-3410.4635
-3410.4635
-3410.4635
-3410.4635
-3410.4635
-3410.4772
-3410.4772
-3410.4772
-3410.4772
-3410.4772
-3410.4772
-3410.4772
-3410.4772
-3410.491
-3410.491
-3410.491
-3410.491
-3410.491
-3410.491
-3410.491
-3410.491
-3410.5048
-3410.5047
-3410.5047
-3410.5047
-3410.5047
-3410.5047
-3410.5047
-3410.5048
-3410.5185
-3410.5185
-3410.5185
-3410.5185
-3410.5185
-3410.5185
-3410.5185
-3410.5185
-3410.5323
-3410.5323
-3410.5323
-3410.5323
-3410.5323
-3410.5323
-3410.5323
-3410.5323
-3410.546
-3410.546
-3410.546
-3410.546
-3410.546
-3410.546
-3410.546
-3410.546
-3410.5598
-3410.5598
-3410.5598
-3410.5598
-3410.5598
-3410.5598
-3410.5598
-3410.5598
-3410.5735
-3410.5735
-3410.5735
-3410.5735
-3410.5735
-3410.5735
-3410.5735
-3410.5735
-3410.5873
-3410.5873
-3410.5873
-3410.5873
-3410.5873
-3410.5873
-3410.5873
-3410.5873
-3410.601
-3410.601
-3410.601
-3410.601
-3410.601
-3410.601
-3410.601
-3410.601
-3410.6148
-3410.6148
-3410.6148
-3410.6148
-3410.6148
-3410.6148
-3410.6148
-3410.6148
-3410.6285
-3410.6285
-3410.6285
-3410.6285
-3410.6285
-3410.6285
-3410.6285
-3410.6285
-3410.6423
-3410.6423
-3410.6423
-3410.6423
-3410.6423
-3410.6423
-3410.6423
-3410.6423
-3410.656
-3410.656
-3410.656
-3410.656
-3410.656
-3410.656
-3410.656
-3410.656
-3410.6698
-3410.6698
-3410.6698
-3410.6698
-3410.6698
-3410.6698
-3410.6698
-3410.6698
-3410.6835
-3410.6835
-3410.6835
-3410.6835
-3410.6835
-3410.6835
-3410.6835
-3410.6835
-3410.6973
-3410.6972
-3410.6972
-3410.6972
-3410.6972
-3410.6972
-3410.6972
-3410.6973
-3410.711
-3410.711
-3410.711
-3410.711
-3410.711
-3410.711
-3410.711
-3410.711
-3410.7248
-3410.7247
-3410.7247
-3410.7247
-3410.7247
-3410.7247
-3410.7247
-3410.7247
-3410.7385
-3410.7385
-3410.7385
-3410.7385
-3410.7385
-3410.7385
-3410.7385
-3410.7385
-3410.7522
-3410.7522
-3410.7522
-3410.7522
-3410.7522
-3410.7522
-3410.7522
-3410.7522
-3410.766
-3410.766
-3410.766
-3410.766
-3410.766
-3410.766
-3410.766
-3410.766
-3410.7797
-3410.7797
-3410.7797
-3410.7797
-3410.7797
-3410.7797
-3410.7797
-3410.7797
-3410.7935
-3410.7935
-3410.7934
-3410.7934
-3410.7934
-3410.7934
-3410.7935
-3410.7935
-3410.8072
-3410.8072
-3410.8072
-3410.8072
-3410.8072
-3410.8072
-3410.8072
-3410.8072
-3410.8209
-3410.8209
-3410.8209
-3410.8209
-3410.8209
-3410.8209
-3410.8209
-3410.8209
-3410.8347
-3410.8347
-3410.8347
-3410.8347
-3410.8347
-3410.8347
-3410.8347
-3410.8347
-3410.8484
-3410.8484
-3410.8484
-3410.8484
-3410.8484
-3410.8484
-3410.8484
-3410.8484
-3410.8622
-3410.8622
-3410.8621
-3410.8621
-3410.8621
-3410.8621
-3410.8621
-3410.8622
-3410.8759
-3410.8759
-3410.8759
-3410.8759
-3410.8759
-3410.8759
-3410.8759
-3410.8759
-3410.8896
-3410.8896
-3410.8896
-3410.8896
-3410.8896
-3410.8896
-3410.8896
-3410.8896
-3410.9034
-3410.9034
-3410.9034
-3410.9034
-3410.9034
-3410.9034
-3410.9034
-3410.9034
-3410.9171
-3410.9171
-3410.9171
-3410.9171
-3410.9171
-3410.9171
-3410.9171
-3410.9171
-3410.9308
-3410.9308
-3410.9308
-3410.9308
-3410.9308
-3410.9308
-3410.9308
-3410.9308
-3410.9446
-3410.9446
-3410.9446
-3410.9446
-3410.9446
-3410.9446
-3410.9446
-3410.9446
-3410.9583
-3410.9583
-3410.9583
-3410.9583
-3410.9583
-3410.9583
-3410.9583
-3410.9583
-3410.972
-3410.972
-3410.972
-3410.972
-3410.972
-3410.972
-3410.972
-3410.972
-3410.9858
-3410.9858
-3410.9857
-3410.9857
-3410.9857
-3410.9857
-3410.9858
-3410.9858
-3410.9995
-3410.9995
-3410.9995
-3410.9995
-3410.9995
-3410.9995
-3410.9995
-3410.9995
-3411.0132
-3411.0132
-3411.0132
-3411.0132
-3411.0132
-3411.0132
-3411.0132
-3411.0132
-3411.027
-3411.0269
-3411.0269
-3411.0269
-3411.0269
-3411.0269
-3411.0269
-3411.027
-3411.0407
-3411.0407
-3411.0407
-3411.0406
-3411.0406
-3411.0407
-3411.0407
-3411.0407
-3411.0544
-3411.0544
-3411.0544
-3411.0544
-3411.0544
-3411.0544
-3411.0544
-3411.0544
-3411.0681
-3411.0681
-3411.0681
-3411.0681
-3411.0681
-3411.0681
-3411.0681
-3411.0681
-3411.0818
-3411.0818
-3411.0818
-3411.0818
-3411.0818
-3411.0818
-3411.0818
-3411.0819
-3411.0956
-3411.0955
-3411.0955
-3411.0955
-3411.0955
-3411.0955
-3411.0956
-3411.0956
-3411.1093
-3411.1093
-3411.1093
-3411.1092
-3411.1092
-3411.1093
-3411.1093
-3411.1093
-3411.123
-3411.123
-3411.123
-3411.123
-3411.123
-3411.123
-3411.123
-3411.123
-3411.1367
-3411.1367
-3411.1367
-3411.1367
-3411.1367
-3411.1367
-3411.1367
-3411.1367
-3411.1504
-3411.1504
-3411.1504
-3411.1504
-3411.1504
-3411.1504
-3411.1504
-3411.1504
-3411.1641
-3411.1641
-3411.1641
-3411.1641
-3411.1641
-3411.1641
-3411.1641
-3411.1642
-3411.1778
-3411.1778
-3411.1778
-3411.1778
-3411.1778
-3411.1778
-3411.1778
-3411.1779
-3411.1916
-3411.1915
-3411.1915
-3411.1915
-3411.1915
-3411.1915
-3411.1915
-3411.1916
-3411.2053
-3411.2052
-3411.2052
-3411.2052
-3411.2052
-3411.2052
-3411.2053
-3411.2053
-3411.219
-3411.2189
-3411.2189
-3411.2189
-3411.2189
-3411.2189
-3411.2189
-3411.219
-3411.2327
-3411.2327
-3411.2326
-3411.2326
-3411.2326
-3411.2326
-3411.2327
-3411.2327
-3411.2464
-3411.2464
-3411.2463
-3411.2463
-3411.2463
-3411.2463
-3411.2464
-3411.2464
-3411.2601
-3411.2601
-3411.26
-3411.2599
-3411.2599
-3411.26
-3411.2601
-3411.2602
-3411.2739
-3411.2738
-3411.2737
-3411.2736
-3411.2736
-3411.2737
-3411.2738
-3411.2739
-3411.2877
-3411.2875
-3411.2873
-3411.2873
-3411.2873
-3411.2873
-3411.2875
-3411.2877
-3411.3015
-3411.3012
-3411.301
-3411.3009
-3411.3009
-3411.301
-3411.3012
-3411.3015
-3411.3153
-3411.3149
-3411.3146
-3411.3145
-3411.3145
-3411.3146
-3411.3149
-3411.3153
-3411.3292
-3411.3287
-3411.3283
-3411.328
-3411.328
-3411.3283
-3411.3287
-3411.3292
-3411.3431
-3411.3424
-3411.3418
-3411.3415
-3411.3415
-3411.3418
-3411.3424
-3411.3431
-3411.357
-3411.3561
-3411.3554
-3411.355
-3411.355
-3411.3553
-3411.3561
-3411.357
-3411.371
-3411.3698
-3411.3688
-3411.3683
-3411.3683
-3411.3688
-3411.3697
-3411.371
-3411.385
-3411.3834
-3411.3821
-3411.3816
-3411.3816
-3411.3821
-3411.3833
-3411.3849
-3411.399
-3411.3969
-3411.3953
-3411.3947
-3411.3947
-3411.3953
-3411.3968
-3411.3989
-3411.4128
-3411.4102
-3411.4083
-3411.4076
-3411.4076
-3411.4083
-3411.4102
-3411.4127
-3411.4265
-3411.4234
-3411.4211
-3411.4203
-3411.4203
-3411.4211
-3411.4233
-3411.4264
-3411.4399
-3411.4362
-3411.4336
-3411.4328
-3411.4328
-3411.4336
-3411.4361
-3411.4397
-3411.4528
-3411.4486
-3411.4458
-3411.445
-3411.445
-3411.4457
-3411.4484
-3411.4526
-3411.465
-3411.4604
-3411.4576
-3411.457
-3411.4569
-3411.4575
-3411.4603
-3411.4648
-3411.4764
-3411.4716
-3411.469
-3411.4688
-3411.4688
-3411.4689
-3411.4714
-3411.4762
-3411.4868
-3411.4819
-3411.4799
-3411.4804
-3411.4804
-3411.4798
-3411.4817
-3411.4865
-3411.4964
-3411.4917
-3411.4901
-3411.491
-3411.4909
-3411.49
-3411.4915
-3411.4961
-3411.5045
-3411.5022
-3411.5001
-3411.4992
-3411.4992
-3411.5
-3411.5021
-3411.5044
)
;

boundaryField
{
    left
    {
        type            zeroGradient;
    }
    right
    {
        type            WKBC;
        index           0;
        value           uniform -3411.5059;
    }
    walls
    {
        type            zeroGradient;
    }
    frontAndBack
    {
        type            empty;
    }
}


// ************************************************************************* //
