/*--------------------------------*- C++ -*----------------------------------*\
| =========                 |                                                 |
| \\      /  F ield         | OpenFOAM: The Open Source CFD Toolbox           |
|  \\    /   O peration     | Version:  5.x                                   |
|   \\  /    A nd           | Web:      www.OpenFOAM.org                      |
|    \\/     M anipulation  |                                                 |
\*---------------------------------------------------------------------------*/
FoamFile
{
    version     2.0;
    format      ascii;
    class       surfaceScalarField;
    location    "1";
    object      phi_0;
}
// * * * * * * * * * * * * * * * * * * * * * * * * * * * * * * * * * * * * * //

dimensions      [0 3 -1 0 0 0 0];

internalField   nonuniform List<scalar> 
3592
(
-1.8377133e-06
-1.7475849e-05
-1.1782955e-06
-1.9972978e-05
-5.8249698e-07
-1.9909357e-05
2.9080819e-13
-1.9896057e-05
5.8249761e-07
-1.9896057e-05
1.1782953e-06
-1.9909357e-05
1.8377129e-06
-1.9972977e-05
-1.7475847e-05
-2.4551968e-06
-1.5020649e-05
-2.2249178e-06
-2.0203253e-05
-1.1931122e-06
-2.0941156e-05
5.3308194e-13
-2.1089163e-05
1.1931131e-06
-2.1089163e-05
2.2249176e-06
-2.0941156e-05
2.4551966e-06
-2.0203252e-05
-1.5020647e-05
-2.1448983e-06
-1.2875747e-05
-2.3663941e-06
-1.9981752e-05
-1.3757412e-06
-2.1931803e-05
6.3589475e-13
-2.24649e-05
1.3757423e-06
-2.24649e-05
2.366394e-06
-2.1931803e-05
2.1448984e-06
-1.9981752e-05
-1.2875746e-05
-1.6989489e-06
-1.1176794e-05
-2.103069e-06
-1.9577627e-05
-1.3041541e-06
-2.2730711e-05
7.1126634e-13
-2.3769049e-05
1.3041552e-06
-2.376905e-05
2.1030691e-06
-2.2730712e-05
1.6989491e-06
-1.9577627e-05
-1.1176794e-05
-1.2794494e-06
-9.8973405e-06
-1.7147063e-06
-1.9142364e-05
-1.1176414e-06
-2.332777e-05
6.1731629e-13
-2.4886687e-05
1.1176424e-06
-2.4886687e-05
1.7147066e-06
-2.3327771e-05
1.2794498e-06
-1.9142365e-05
-9.8973407e-06
-9.2887784e-07
-8.9684584e-06
-1.3247742e-06
-1.8746462e-05
-8.9893195e-07
-2.3753607e-05
5.1254044e-13
-2.5785615e-05
8.9893273e-07
-2.5785615e-05
1.3247747e-06
-2.3753608e-05
9.2887829e-07
-1.8746463e-05
-8.9684588e-06
-6.5539448e-07
-8.3130603e-06
-9.8475993e-07
-1.8417091e-05
-6.91143e-07
-2.4047219e-05
3.4271597e-13
-2.6476754e-05
6.911436e-07
-2.6476755e-05
9.8476056e-07
-2.404722e-05
6.5539503e-07
-1.8417092e-05
-8.3130607e-06
-4.5216616e-07
-7.8608901e-06
-7.1053782e-07
-1.8158714e-05
-5.1336853e-07
-2.4244383e-05
2.1638713e-13
-2.6990118e-05
5.1336893e-07
-2.6990119e-05
7.1053856e-07
-2.4244384e-05
4.5216678e-07
-1.8158715e-05
-7.8608905e-06
-3.0610094e-07
-7.554786e-06
-5.0043629e-07
-1.7964374e-05
-3.7083617e-07
-2.4373979e-05
8.5627994e-14
-2.7360951e-05
3.7083642e-07
-2.7360951e-05
5.0043709e-07
-2.437398e-05
3.061016e-07
-1.7964374e-05
-7.5547863e-06
-2.0376703e-07
-7.3510155e-06
-3.451927e-07
-1.7822943e-05
-2.6165513e-07
-2.4457513e-05
-5.164577e-15
-2.7622602e-05
2.6165525e-07
-2.7622603e-05
3.4519351e-07
-2.4457513e-05
2.0376771e-07
-1.7822943e-05
-7.3510158e-06
-1.3345329e-07
-7.2175598e-06
-2.3369719e-07
-1.7722695e-05
-1.8082214e-07
-2.4510385e-05
-6.8646032e-14
-2.7803422e-05
1.8082216e-07
-2.7803422e-05
2.3369797e-07
-2.4510385e-05
1.3345394e-07
-1.7722695e-05
-7.2175601e-06
-8.6026455e-08
-7.1315306e-06
-1.5542963e-07
-1.7653288e-05
-1.2261043e-07
-2.45432e-05
-1.2187355e-13
-2.7926029e-05
1.226104e-07
-2.7926028e-05
1.5543032e-07
-2.45432e-05
8.6027071e-08
-1.7653288e-05
-7.1315309e-06
-5.4522556e-08
-7.0770065e-06
-1.0160008e-07
-1.7606208e-05
-8.1638315e-08
-2.456316e-05
-1.2953893e-13
-2.8007665e-05
8.1638212e-08
-2.8007664e-05
1.016007e-07
-2.456316e-05
5.4523106e-08
-1.7606207e-05
-7.0770066e-06
-3.3944604e-08
-7.0430598e-06
-6.5234269e-08
-1.7574914e-05
-5.3389267e-08
-2.4575002e-05
-1.5766113e-13
-2.8061051e-05
5.3389173e-08
-2.8061051e-05
6.5234771e-08
-2.4575002e-05
3.3945087e-08
-1.7574914e-05
-7.04306e-06
-2.0697688e-08
-7.0223611e-06
-4.1097931e-08
-1.7554512e-05
-3.4268615e-08
-2.458183e-05
-1.3160792e-13
-2.8095317e-05
3.4268468e-08
-2.8095317e-05
4.109835e-08
-2.458183e-05
2.0698089e-08
-1.7554512e-05
-7.0223612e-06
-1.2320819e-08
-7.0100387e-06
-2.5344072e-08
-1.7541486e-05
-2.1559586e-08
-2.4585612e-05
-1.4416014e-13
-2.8116874e-05
2.1559481e-08
-2.8116874e-05
2.5344379e-08
-2.4585612e-05
1.2321154e-08
-1.7541486e-05
-7.0100389e-06
-7.1119115e-09
-7.0029262e-06
-1.5245647e-08
-1.7533351e-05
-1.3259632e-08
-2.4587597e-05
-1.0224623e-13
-2.8130132e-05
1.3259494e-08
-2.8130132e-05
1.5245895e-08
-2.4587597e-05
7.1121725e-09
-1.7533351e-05
-7.0029264e-06
-3.9433745e-09
-6.9989816e-06
-8.8921377e-09
-1.75284e-05
-7.9400689e-09
-2.4588547e-05
-1.0244952e-13
-2.813807e-05
7.9399925e-09
-2.813807e-05
8.8923081e-09
-2.4588547e-05
3.9435878e-09
-1.75284e-05
-6.9989819e-06
-2.0608935e-09
-6.9969203e-06
-4.9809677e-09
-1.7525479e-05
-4.5979674e-09
-2.4588929e-05
-5.7123088e-14
-2.8142667e-05
4.5978816e-09
-2.8142667e-05
4.9811138e-09
-2.4588929e-05
2.061055e-09
-1.7525479e-05
-6.9969206e-06
-9.7828527e-10
-6.9959409e-06
-2.6327002e-09
-1.7523822e-05
-2.5461536e-09
-2.4589013e-05
-4.6157389e-14
-2.8145211e-05
2.5461369e-09
-2.8145211e-05
2.6328112e-09
-2.4589014e-05
9.7842357e-10
-1.7523823e-05
-6.9959413e-06
-3.8065129e-10
-6.99556e-06
-1.2670928e-09
-1.7522935e-05
-1.3200599e-09
-2.4588959e-05
-2.4642142e-15
-2.814653e-05
1.3200596e-09
-2.814653e-05
1.2672098e-09
-2.458896e-05
3.8076115e-10
-1.7522936e-05
-6.9955603e-06
-7.1176478e-11
-6.9954877e-06
-5.0513733e-10
-1.7522499e-05
-6.123885e-10
-2.458885e-05
1.897988e-14
-2.814714e-05
6.1245833e-10
-2.8147141e-05
5.0525739e-10
-2.4588851e-05
7.1284498e-11
-1.75225e-05
-6.9954882e-06
7.3734417e-11
-6.9955612e-06
-1.0543896e-10
-1.7522319e-05
-2.2221764e-10
-2.4588733e-05
5.7264493e-14
-2.8147362e-05
2.2232539e-10
-2.8147362e-05
1.0558313e-10
-2.4588734e-05
-7.3636814e-11
-1.752232e-05
-6.9955617e-06
1.2747633e-10
-6.9956876e-06
8.4700174e-11
-1.7522274e-05
-2.1728535e-11
-2.4588624e-05
8.789455e-14
-2.8147381e-05
2.1901718e-11
-2.8147382e-05
-8.4527382e-11
-2.4588625e-05
-1.2736672e-10
-1.7522276e-05
-6.9956882e-06
1.3529094e-10
-6.9958226e-06
1.5776528e-10
-1.7522296e-05
7.0007975e-11
-2.4588536e-05
1.1892613e-13
-2.8147311e-05
-6.9782677e-11
-2.8147311e-05
-1.5756194e-10
-2.4588537e-05
-1.3518119e-10
-1.7522298e-05
-6.9958232e-06
1.2096802e-10
-6.9959425e-06
1.705558e-10
-1.7522344e-05
1.0164144e-10
-2.4588465e-05
1.5338399e-13
-2.8147207e-05
-1.0136094e-10
-2.8147208e-05
-1.7031216e-10
-2.4588466e-05
-1.2084024e-10
-1.7522346e-05
-6.9959432e-06
9.9835871e-11
-6.996042e-06
1.5432706e-10
-1.7522398e-05
1.0311043e-10
-2.4588413e-05
1.774514e-13
-2.8147104e-05
-1.0277345e-10
-2.8147104e-05
-1.5405589e-10
-2.4588415e-05
-9.9704125e-11
-1.7522399e-05
-6.9960427e-06
7.7208511e-11
-6.9961181e-06
1.2808474e-10
-1.7522447e-05
9.0543921e-11
-2.4588373e-05
2.1088035e-13
-2.8147012e-05
-9.0164394e-11
-2.8147012e-05
-1.2777232e-10
-2.4588375e-05
-7.7058535e-11
-1.7522448e-05
-6.9961189e-06
5.8050326e-11
-6.9961759e-06
9.9885638e-11
-1.7522488e-05
7.3825421e-11
-2.4588347e-05
2.2770325e-13
-2.8146937e-05
-7.3394356e-11
-2.8146938e-05
-9.9553847e-11
-2.4588349e-05
-5.7896999e-11
-1.7522489e-05
-6.9961766e-06
4.1562458e-11
-6.9962164e-06
7.5220511e-11
-1.752252e-05
5.6861474e-11
-2.4588327e-05
2.5669964e-13
-2.8146879e-05
-5.6401003e-11
-2.814688e-05
-7.4853445e-11
-2.4588328e-05
-4.1393986e-11
-1.7522521e-05
-6.9962172e-06
2.9668444e-11
-6.9962458e-06
5.4367247e-11
-1.7522544e-05
4.2433893e-11
-2.4588314e-05
2.6647118e-13
-2.8146836e-05
-4.1932924e-11
-2.8146837e-05
-5.3990346e-11
-2.4588316e-05
-2.9499385e-11
-1.7522545e-05
-6.9962465e-06
1.9978217e-11
-6.9962647e-06
3.8697716e-11
-1.7522561e-05
3.043238e-11
-2.4588304e-05
2.8843184e-13
-2.8146804e-05
-2.9914682e-11
-2.8146805e-05
-3.8294906e-11
-2.4588306e-05
-1.9798296e-11
-1.7522562e-05
-6.9962655e-06
1.3830683e-11
-6.9962783e-06
2.6432391e-11
-1.7522573e-05
2.1529629e-11
-2.4588299e-05
2.9157731e-13
-2.8146783e-05
-2.0985749e-11
-2.8146783e-05
-2.6028743e-11
-2.45883e-05
-1.365352e-11
-1.7522574e-05
-6.996279e-06
8.6900635e-12
-6.996286e-06
1.8085295e-11
-1.752258e-05
1.4610046e-11
-2.4588294e-05
3.0525201e-13
-2.8146767e-05
-1.40611e-11
-2.8146767e-05
-1.7666028e-11
-2.4588295e-05
-8.506255e-12
-1.7522582e-05
-6.9962867e-06
5.9789928e-12
-6.9962918e-06
1.1665882e-11
-1.7522586e-05
9.9468468e-12
-2.4588291e-05
3.0242431e-13
-2.8146757e-05
-9.3868424e-12
-2.8146757e-05
-1.1253476e-11
-2.4588293e-05
-5.8010015e-12
-1.7522587e-05
-6.9962923e-06
3.3596557e-12
-6.9962941e-06
7.7626943e-12
-1.7522588e-05
6.3665192e-12
-2.4588288e-05
3.0780885e-13
-2.8146749e-05
-5.8115976e-12
-2.8146749e-05
-7.344258e-12
-2.458829e-05
-3.1785384e-12
-1.752259e-05
-6.9962947e-06
2.4292794e-12
-6.9962964e-06
4.6173172e-12
-1.752259e-05
4.2143653e-12
-2.4588288e-05
2.9980615e-13
-2.8146745e-05
-3.6623773e-12
-2.8146745e-05
-4.2118473e-12
-2.4588289e-05
-2.2563535e-12
-1.7522591e-05
-6.9962968e-06
1.0553788e-12
-6.9962965e-06
3.0446279e-12
-1.752259e-05
2.4698314e-12
-2.4588285e-05
2.9778805e-13
-2.8146741e-05
-1.9312429e-12
-2.8146741e-05
-2.6411132e-12
-2.4588286e-05
-8.8193975e-13
-1.7522591e-05
-6.9962969e-06
9.5730993e-13
-6.9962972e-06
1.5300965e-12
-1.752259e-05
1.6145817e-12
-2.4588285e-05
2.8563597e-13
-2.8146739e-05
-1.0905153e-12
-2.8146739e-05
-1.1440024e-12
-2.4588286e-05
-7.936347e-13
-1.7522591e-05
-6.9962976e-06
1.4637816e-13
-6.9962964e-06
1.0607518e-12
-1.752259e-05
7.7251143e-13
-2.4588283e-05
2.7781457e-13
-2.8146737e-05
-2.6793104e-13
-2.8146737e-05
-6.8252694e-13
-2.4588284e-05
1.6105368e-14
-1.7522591e-05
-6.9962968e-06
4.0222221e-13
-6.9962967e-06
2.8839974e-13
-1.7522589e-05
5.2385478e-13
-2.4588283e-05
2.6282064e-13
-2.8146736e-05
-4.2151644e-14
-2.8146737e-05
6.9641836e-14
-2.4588284e-05
-2.5028383e-13
-1.752259e-05
-6.9962969e-06
-1.7351531e-13
-6.9962956e-06
2.9658277e-13
-1.7522588e-05
8.7891731e-14
-2.4588281e-05
2.5109723e-13
-2.8146735e-05
3.7072068e-13
-2.8146735e-05
4.9898966e-14
-2.4588282e-05
3.233711e-13
-1.7522589e-05
-6.9962958e-06
2.1690995e-13
-6.9962957e-06
-1.6469602e-13
-1.7522587e-05
9.8893063e-14
-2.4588281e-05
2.3468443e-13
-2.8146735e-05
3.3192813e-13
-2.8146735e-05
4.8986178e-13
-2.4588282e-05
-7.767904e-14
-1.7522588e-05
-6.9962958e-06
-2.6743464e-13
-6.9962945e-06
3.1105469e-14
-1.7522586e-05
-1.6858033e-13
-2.4588279e-05
2.2098148e-13
-2.8146734e-05
5.7519878e-13
-2.8146734e-05
2.8090304e-13
-2.458828e-05
4.0435879e-13
-1.7522586e-05
-6.9962947e-06
1.6546087e-13
-6.9962945e-06
-3.1028448e-13
-1.7522585e-05
-5.6487863e-14
-2.4588279e-05
2.0453685e-13
-2.8146734e-05
4.3359918e-13
-2.8146734e-05
6.0130005e-13
-2.458828e-05
-3.8674436e-14
-1.7522585e-05
-6.9962946e-06
-2.8502751e-13
-6.9962933e-06
-4.9949709e-14
-1.7522584e-05
-2.594375e-13
-2.4588278e-05
1.9054837e-13
-2.8146733e-05
6.1346487e-13
-2.8146733e-05
3.2796655e-13
-2.4588278e-05
4.097761e-13
-1.7522584e-05
-6.9962934e-06
1.5521876e-13
-6.9962933e-06
-3.4897702e-13
-1.7522583e-05
-1.1252906e-13
-2.4588278e-05
1.7524725e-13
-2.8146733e-05
4.3793607e-13
-2.8146733e-05
6.0748228e-13
-2.4588278e-05
-3.9716852e-14
-1.7522583e-05
-6.9962934e-06
-2.8195966e-13
-6.9962921e-06
-7.1643177e-14
-1.7522582e-05
-2.9241557e-13
-2.4588276e-05
1.6226853e-13
-2.8146732e-05
5.9758183e-13
-2.8146732e-05
3.1859401e-13
-2.4588276e-05
3.9600334e-13
-1.7522582e-05
-6.9962923e-06
1.5388469e-13
-6.9962922e-06
-3.5654981e-13
-1.7522581e-05
-1.3574433e-13
-2.4588276e-05
1.4895486e-13
-2.8146732e-05
4.1499609e-13
-2.8146732e-05
5.8624717e-13
-2.4588276e-05
-4.7962424e-14
-1.7522581e-05
-6.9962922e-06
-2.7612561e-13
-6.996291e-06
-7.8426817e-14
-1.752258e-05
-3.0732476e-13
-2.4588274e-05
1.3781645e-13
-2.8146731e-05
5.7027076e-13
-2.8146731e-05
2.9879045e-13
-2.4588274e-05
3.8130871e-13
-1.752258e-05
-6.9962911e-06
1.5220835e-13
-6.9962911e-06
-3.5799411e-13
-1.7522579e-05
-1.4917397e-13
-2.4588274e-05
1.2696098e-13
-2.8146731e-05
3.8992278e-13
-2.8146731e-05
5.6374081e-13
-2.4588274e-05
-5.3942145e-14
-1.7522579e-05
-6.9962911e-06
-2.7184557e-13
-6.9962899e-06
-8.3566214e-14
-1.7522577e-05
-3.168971e-13
-2.4588272e-05
1.1804975e-13
-2.814673e-05
5.4573525e-13
-2.814673e-05
2.8251017e-13
-2.4588273e-05
3.7008863e-13
-1.7522578e-05
-6.99629e-06
1.486299e-13
-6.99629e-06
-3.5977193e-13
-1.7522577e-05
-1.594755e-13
-2.4588272e-05
1.0977819e-13
-2.814673e-05
3.7013937e-13
-2.814673e-05
5.4676246e-13
-2.4588273e-05
-5.6142552e-14
-1.7522577e-05
-6.99629e-06
-2.6934267e-13
-6.9962888e-06
-8.9733352e-14
-1.7522575e-05
-3.2433822e-13
-2.4588271e-05
1.0311888e-13
-2.8146729e-05
5.2741456e-13
-2.8146729e-05
2.7239371e-13
-2.4588271e-05
3.6241759e-13
-1.7522575e-05
-6.9962889e-06
1.4358614e-13
-6.9962889e-06
-3.626216e-13
-1.7522574e-05
-1.6802307e-13
-2.4588271e-05
9.7286923e-14
-2.8146729e-05
3.5672252e-13
-2.8146729e-05
5.3575496e-13
-2.4588271e-05
-5.5232374e-14
-1.7522575e-05
-6.9962889e-06
-2.6802555e-13
-6.9962878e-06
-9.6747587e-14
-1.7522573e-05
-3.3013976e-13
-2.4588269e-05
9.2650175e-14
-2.8146728e-05
5.1512451e-13
-2.8146728e-05
2.6771751e-13
-2.4588269e-05
3.5741183e-13
-1.7522573e-05
-6.9962879e-06
1.3770458e-13
-6.9962879e-06
-3.6606147e-13
-1.7522572e-05
-1.7494963e-13
-2.4588269e-05
8.8936515e-14
-2.8146728e-05
3.4879238e-13
-2.8146728e-05
5.295315e-13
-2.4588269e-05
-5.2174596e-14
-1.7522573e-05
-6.9962879e-06
-2.6740292e-13
-6.9962867e-06
-1.0407591e-13
-1.7522571e-05
-3.3436262e-13
-2.4588267e-05
8.5947454e-14
-2.8146727e-05
5.0769789e-13
-2.8146727e-05
2.6711174e-13
-2.4588268e-05
3.5422172e-13
-1.7522571e-05
-6.9962869e-06
1.3139503e-13
-6.9962868e-06
-3.696753e-13
-1.752257e-05
-1.8035479e-13
-2.4588267e-05
8.3944004e-14
-2.8146727e-05
3.4505899e-13
-2.8146727e-05
5.2677124e-13
-2.4588268e-05
-4.7747431e-14
-1.7522571e-05
-6.9962869e-06
-2.6721206e-13
-6.9962857e-06
-1.1141644e-13
-1.7522569e-05
-3.3720257e-13
-2.4588266e-05
8.2173447e-14
-2.8146726e-05
5.0386599e-13
-2.8146726e-05
2.6933306e-13
-2.4588266e-05
3.5222263e-13
-1.752257e-05
-6.9962859e-06
1.2486138e-13
-6.9962858e-06
-3.7330725e-13
-1.7522569e-05
-1.8451021e-13
-2.4588266e-05
8.1457446e-14
-2.8146726e-05
3.4430378e-13
-2.8146726e-05
5.2638124e-13
-2.4588266e-05
-4.2503349e-14
-1.7522569e-05
-6.9962859e-06
-2.673477e-13
-6.9962847e-06
-1.1869664e-13
-1.7522567e-05
-3.39003e-13
-2.4588264e-05
8.0487624e-14
-2.8146725e-05
5.0251168e-13
-2.8146725e-05
2.7340077e-13
-2.4588265e-05
3.5098468e-13
-1.7522568e-05
-6.9962849e-06
1.1818935e-13
-6.9962848e-06
-3.7697177e-13
-1.7522567e-05
-1.8778571e-13
-2.4588264e-05
8.0670519e-14
-2.8146725e-05
3.4550108e-13
-2.8146726e-05
5.2752067e-13
-2.4588265e-05
-3.6826048e-14
-1.7522567e-05
-6.9962849e-06
-2.6777815e-13
-6.9962838e-06
-1.2595697e-13
-1.7522566e-05
-3.4015152e-13
-2.4588263e-05
8.0135917e-14
-2.8146725e-05
5.0272018e-13
-2.8146725e-05
2.7856784e-13
-2.4588263e-05
3.5021194e-13
-1.7522566e-05
-6.996284e-06
1.1141824e-13
-6.9962839e-06
-3.8074182e-13
-1.7522565e-05
-1.9054807e-13
-2.4588263e-05
8.0891239e-14
-2.8146725e-05
3.4782896e-13
-2.8146725e-05
5.2955201e-13
-2.4588263e-05
-3.0986722e-14
-1.7522565e-05
-6.996284e-06
-2.6849059e-13
-6.9962828e-06
-1.3325762e-13
-1.7522564e-05
-3.4099329e-13
-2.4588261e-05
8.0497413e-14
-2.8146724e-05
5.0377095e-13
-2.8146724e-05
2.8426758e-13
-2.4588262e-05
3.4969543e-13
-1.7522564e-05
-6.996283e-06
1.0457962e-13
-6.9962829e-06
-3.8467828e-13
-1.7522563e-05
-1.930956e-13
-2.4588262e-05
8.1571041e-14
-2.8146724e-05
3.5065076e-13
-2.8146724e-05
5.3199286e-13
-2.4588262e-05
-2.5181332e-14
-1.7522563e-05
-6.9962831e-06
-2.6946561e-13
-6.9962819e-06
-1.4062996e-13
-1.7522562e-05
-3.4178731e-13
-2.458826e-05
8.1098654e-14
-2.8146723e-05
5.0511533e-13
-2.8146724e-05
2.9007172e-13
-2.4588261e-05
3.4928413e-13
-1.7522562e-05
-6.9962821e-06
9.7714271e-14
-6.996282e-06
-3.8880019e-13
-1.7522561e-05
-1.956329e-13
-2.458826e-05
8.2306445e-14
-2.8146724e-05
3.5349049e-13
-2.8146724e-05
5.3448089e-13
-2.4588261e-05
-1.955426e-14
-1.7522562e-05
-6.9962822e-06
-2.7066852e-13
-6.996281e-06
-1.4806082e-13
-1.752256e-05
-3.4269557e-13
-2.4588259e-05
8.1604585e-14
-2.8146723e-05
5.0635126e-13
-2.8146723e-05
2.9566003e-13
-2.4588259e-05
3.4886751e-13
-1.7522561e-05
-6.9962812e-06
9.0874397e-14
-6.9962812e-06
-3.9307975e-13
-1.752256e-05
-1.9827224e-13
-2.4588259e-05
8.2824419e-14
-2.8146723e-05
3.5600616e-13
-2.8146723e-05
5.367479e-13
-2.458826e-05
-1.4211532e-14
-1.752256e-05
-6.9962813e-06
-2.7205064e-13
-6.9962801e-06
-1.5549554e-13
-1.7522559e-05
-3.4379354e-13
-2.4588258e-05
8.1800231e-14
-2.8146722e-05
5.0719652e-13
-2.8146723e-05
3.0079827e-13
-2.4588258e-05
3.4836486e-13
-1.7522559e-05
-6.9962804e-06
8.4121666e-14
-6.9962803e-06
-3.9745118e-13
-1.7522558e-05
-2.0104885e-13
-2.4588258e-05
8.2959618e-14
-2.8146723e-05
3.5796449e-13
-2.8146723e-05
5.3860046e-13
-2.4588258e-05
-9.2299544e-15
-1.7522559e-05
-6.9962805e-06
-2.7355349e-13
-6.9962793e-06
-1.6284914e-13
-1.7522557e-05
-3.4508837e-13
-2.4588257e-05
8.1565717e-14
-2.8146722e-05
5.0746506e-13
-2.8146722e-05
3.0531981e-13
-2.4588257e-05
3.4771839e-13
-1.7522558e-05
-6.9962796e-06
7.7521524e-14
-6.9962795e-06
-4.0182266e-13
-1.7522557e-05
-2.0394092e-13
-2.4588257e-05
8.2629915e-14
-2.8146722e-05
3.5921755e-13
-2.8146723e-05
5.3990409e-13
-2.4588257e-05
-4.6632729e-15
-1.7522557e-05
-6.9962796e-06
-2.7511431e-13
-6.9962785e-06
-1.7001925e-13
-1.7522556e-05
-3.465389e-13
-2.4588256e-05
8.0852252e-14
-2.8146722e-05
5.0704438e-13
-2.8146722e-05
3.0911218e-13
-2.4588256e-05
3.4688764e-13
-1.7522556e-05
-6.9962787e-06
7.1139182e-14
-6.9962787e-06
-4.0608994e-13
-1.7522555e-05
-2.0688902e-13
-2.4588256e-05
8.1813409e-14
-2.8146722e-05
3.5968218e-13
-2.8146722e-05
5.4057045e-13
-2.4588256e-05
-5.4751258e-16
-1.7522556e-05
-6.9962788e-06
-2.7667025e-13
-6.9962777e-06
-1.768979e-13
-1.7522554e-05
-3.4807472e-13
-2.4588255e-05
7.9661112e-14
-2.8146721e-05
5.0587781e-13
-2.8146722e-05
3.1210489e-13
-2.4588255e-05
3.4584571e-13
-1.7522555e-05
-6.9962779e-06
6.5034971e-14
-6.9962779e-06
-4.1014662e-13
-1.7522554e-05
-2.0981277e-13
-2.4588255e-05
8.0529423e-14
-2.8146722e-05
3.5932345e-13
-2.8146722e-05
5.4054692e-13
-2.4588255e-05
3.0962666e-15
-1.7522554e-05
-6.996278e-06
-2.7816285e-13
-6.9962769e-06
-1.8338054e-13
-1.7522553e-05
-3.496106e-13
-2.4588254e-05
7.8026569e-14
-2.8146721e-05
5.0394854e-13
-2.8146721e-05
3.1425983e-13
-2.4588254e-05
3.4457645e-13
-1.7522553e-05
-6.9962772e-06
5.9262696e-14
-6.9962771e-06
-4.1389192e-13
-1.7522552e-05
-2.1262393e-13
-2.4588254e-05
7.8822854e-14
-2.8146722e-05
3.5814068e-13
-2.8146722e-05
5.3980828e-13
-2.4588255e-05
6.2579616e-15
-1.7522553e-05
-6.9962773e-06
-2.7953916e-13
-6.9962762e-06
-1.8937267e-13
-1.7522552e-05
-3.5105763e-13
-2.4588253e-05
7.6002303e-14
-2.8146721e-05
5.0126812e-13
-2.8146721e-05
3.1556409e-13
-2.4588253e-05
3.4307174e-13
-1.7522552e-05
-6.9962764e-06
5.3866778e-14
-6.9962764e-06
-4.1723605e-13
-1.7522551e-05
-2.1523536e-13
-2.4588253e-05
7.6753059e-14
-2.8146722e-05
3.5615717e-13
-2.8146722e-05
5.3835007e-13
-2.4588254e-05
8.936885e-15
-1.7522552e-05
-6.9962765e-06
-2.807544e-13
-6.9962755e-06
-1.9479311e-13
-1.752255e-05
-3.5233096e-13
-2.4588252e-05
7.3651618e-14
-2.8146721e-05
4.9786751e-13
-2.8146721e-05
3.1602358e-13
-2.4588252e-05
3.4133018e-13
-1.7522551e-05
-6.9962757e-06
4.888292e-14
-6.9962757e-06
-4.2010361e-13
-1.752255e-05
-2.175673e-13
-2.4588252e-05
7.4385278e-14
-2.8146721e-05
3.5341235e-13
-2.8146722e-05
5.3618351e-13
-2.4588253e-05
1.1139458e-14
-1.752255e-05
-6.9962758e-06
-2.8177154e-13
-6.9962748e-06
-1.995771e-13
-1.7522549e-05
-3.5335482e-13
-2.4588251e-05
7.1040783e-14
-2.8146721e-05
4.9378999e-13
-2.8146721e-05
3.1565882e-13
-2.4588252e-05
3.3935495e-13
-1.752255e-05
-6.996275e-06
4.4336821e-14
-6.996275e-06
-4.2243466e-13
-1.7522549e-05
-2.1955087e-13
-2.4588252e-05
7.178526e-14
-2.8146721e-05
3.4995568e-13
-2.8146722e-05
5.3333165e-13
-2.4588252e-05
1.2877941e-14
-1.7522549e-05
-6.9962751e-06
-2.8256223e-13
-6.9962741e-06
-2.036761e-13
-1.7522548e-05
-3.5406517e-13
-2.4588251e-05
6.8234447e-14
-2.8146721e-05
4.8908653e-13
-2.8146721e-05
3.145009e-13
-2.4588251e-05
3.371538e-13
-1.7522548e-05
-6.9962743e-06
4.0245162e-14
-6.9962743e-06
-4.2418503e-13
-1.7522548e-05
-2.2113051e-13
-2.4588251e-05
6.9015657e-14
-2.8146721e-05
3.4584268e-13
-2.8146722e-05
5.2982617e-13
-2.4588251e-05
1.4169044e-14
-1.7522548e-05
-6.9962745e-06
-2.8310575e-13
-6.9962734e-06
-2.0705808e-13
-1.7522547e-05
-3.5441087e-13
-2.458825e-05
6.5292695e-14
-2.8146721e-05
4.8381234e-13
-2.8146721e-05
3.1258881e-13
-2.458825e-05
3.3473699e-13
-1.7522547e-05
-6.9962737e-06
3.6616446e-14
-6.9962737e-06
-4.2532616e-13
-1.7522546e-05
-2.222635e-13
-2.458825e-05
6.6133399e-14
-2.8146721e-05
3.4113203e-13
-2.8146722e-05
5.2570474e-13
-2.4588251e-05
1.5032981e-14
-1.7522547e-05
-6.9962738e-06
-2.8338898e-13
-6.9962728e-06
-2.0970585e-13
-1.7522546e-05
-3.5435396e-13
-2.4588249e-05
6.2269663e-14
-2.8146721e-05
4.7802415e-13
-2.8146721e-05
3.0996727e-13
-2.458825e-05
3.3211728e-13
-1.7522546e-05
-6.996273e-06
3.3451365e-14
-6.9962731e-06
-4.2584302e-13
-1.7522545e-05
-2.229206e-13
-2.458825e-05
6.318939e-14
-2.8146722e-05
3.3588301e-13
-2.8146722e-05
5.2100947e-13
-2.458825e-05
1.5492458e-14
-1.7522546e-05
-6.9962732e-06
-2.8340541e-13
-6.9962722e-06
-2.1161562e-13
-1.7522545e-05
-3.5386892e-13
-2.4588249e-05
5.9212404e-14
-2.8146721e-05
4.7177859e-13
-2.8146721e-05
3.0668453e-13
-2.4588249e-05
3.2930909e-13
-1.7522545e-05
-6.9962724e-06
3.07442e-14
-6.9962724e-06
-4.2573294e-13
-1.7522544e-05
-2.2308462e-13
-2.4588249e-05
6.0227315e-14
-2.8146722e-05
3.3015428e-13
-2.8146722e-05
5.1578514e-13
-2.458825e-05
1.5572105e-14
-1.7522545e-05
-6.9962726e-06
-2.831543e-13
-6.9962716e-06
-2.1279536e-13
-1.7522544e-05
-3.529414e-13
-2.4588248e-05
5.6161326e-14
-2.8146721e-05
4.6513084e-13
-2.8146721e-05
3.0279136e-13
-2.4588249e-05
3.2632811e-13
-1.7522544e-05
-6.9962718e-06
2.8483763e-14
-6.9962719e-06
-4.2500402e-13
-1.7522543e-05
-2.2274885e-13
-2.4588249e-05
5.728419e-14
-2.8146722e-05
3.2400257e-13
-2.8146722e-05
5.1007802e-13
-2.4588249e-05
1.5297684e-14
-1.7522544e-05
-6.996272e-06
-2.8263938e-13
-6.996271e-06
-2.1326296e-13
-1.7522543e-05
-3.515672e-13
-2.4588248e-05
5.3149943e-14
-2.8146721e-05
4.5813396e-13
-2.8146721e-05
2.9833939e-13
-2.4588248e-05
3.2319052e-13
-1.7522543e-05
-6.9962712e-06
2.665416e-14
-6.9962713e-06
-4.2367304e-13
-1.7522542e-05
-2.2191644e-13
-2.4588248e-05
5.4390104e-14
-2.8146722e-05
3.1748248e-13
-2.8146722e-05
5.0393472e-13
-2.4588249e-05
1.4695681e-14
-1.7522543e-05
-6.9962714e-06
-2.8186883e-13
-6.9962705e-06
-2.1304449e-13
-1.7522542e-05
-3.4975083e-13
-2.4588247e-05
5.0205217e-14
-2.8146721e-05
4.5083833e-13
-2.8146722e-05
2.9338057e-13
-2.4588248e-05
3.1991286e-13
-1.7522542e-05
-6.9962706e-06
2.5236312e-14
-6.9962707e-06
-4.2176421e-13
-1.7522542e-05
-2.2059808e-13
-2.4588248e-05
5.1569545e-14
-2.8146722e-05
3.1064548e-13
-2.8146722e-05
4.9740168e-13
-2.4588248e-05
1.3792454e-14
-1.7522542e-05
-6.9962708e-06
-2.8085341e-13
-6.9962699e-06
-2.1217191e-13
-1.7522541e-05
-3.4750337e-13
-2.4588247e-05
4.7348828e-14
-2.8146722e-05
4.4329122e-13
-2.8146722e-05
2.8796606e-13
-2.4588247e-05
3.1651182e-13
-1.7522541e-05
-6.9962701e-06
2.420838e-14
-6.9962702e-06
-4.1930673e-13
-1.7522541e-05
-2.1881042e-13
-2.4588248e-05
4.8841559e-14
-2.8146722e-05
3.0353991e-13
-2.8146722e-05
4.9052416e-13
-2.4588248e-05
1.2614776e-14
-1.7522541e-05
-6.9962703e-06
-2.796069e-13
-6.9962694e-06
-2.106826e-13
-1.752254e-05
-3.4484199e-13
-2.4588246e-05
4.4597152e-14
-2.8146722e-05
4.3553669e-13
-2.8146722e-05
2.8214571e-13
-2.4588247e-05
3.1300365e-13
-1.752254e-05
-6.9962696e-06
2.354654e-14
-6.9962697e-06
-4.163348e-13
-1.752254e-05
-2.1657614e-13
-2.4588247e-05
4.6220289e-14
-2.8146723e-05
2.9621076e-13
-2.8146723e-05
4.8334627e-13
-2.4588247e-05
1.1188024e-14
-1.752254e-05
-6.9962698e-06
-2.7814398e-13
-6.9962689e-06
-2.0861682e-13
-1.7522539e-05
-3.4178794e-13
-2.4588246e-05
4.1962144e-14
-2.8146722e-05
4.2761562e-13
-2.8146722e-05
2.7596774e-13
-2.4588246e-05
3.0940403e-13
-1.7522539e-05
-6.9962691e-06
2.3225931e-14
-6.9962692e-06
-4.1288421e-13
-1.7522539e-05
-2.1392038e-13
-2.4588247e-05
4.3716187e-14
-2.8146723e-05
2.8869984e-13
-2.8146723e-05
4.7590974e-13
-2.4588247e-05
9.5374677e-15
-1.7522539e-05
-6.9962693e-06
-2.7648115e-13
-6.9962684e-06
-2.0601695e-13
-1.7522538e-05
-3.383659e-13
-2.4588246e-05
3.9452403e-14
-2.8146722e-05
4.1956546e-13
-2.8146722e-05
2.694781e-13
-2.4588246e-05
3.0572807e-13
-1.7522539e-05
-6.9962686e-06
2.3221241e-14
-6.9962687e-06
-4.0899339e-13
-1.7522538e-05
-2.1087222e-13
-2.4588246e-05
4.1336128e-14
-2.8146723e-05
2.8104558e-13
-2.8146723e-05
4.6825464e-13
-2.4588247e-05
7.6870182e-15
-1.7522539e-05
-6.9962688e-06
-2.7463485e-13
-6.9962679e-06
-2.029266e-13
-1.7522538e-05
-3.3460294e-13
-2.4588245e-05
3.7073164e-14
-2.8146723e-05
4.1142071e-13
-2.8146723e-05
2.6272054e-13
-2.4588246e-05
3.0199023e-13
-1.7522538e-05
-6.9962681e-06
2.35066e-14
-6.9962683e-06
-4.0470099e-13
-1.7522538e-05
-2.0746171e-13
-2.4588246e-05
3.9084242e-14
-2.8146723e-05
2.7328324e-13
-2.8146723e-05
4.6041834e-13
-2.4588246e-05
5.6598678e-15
-1.7522538e-05
-6.9962683e-06
-2.7262234e-13
-6.9962675e-06
-1.9938941e-13
-1.7522537e-05
-3.3052711e-13
-2.4588245e-05
3.4827118e-14
-2.8146723e-05
4.032127e-13
-2.8146723e-05
2.557362e-13
-2.4588245e-05
2.98204e-13
-1.7522537e-05
-6.9962676e-06
2.4056814e-14
-6.9962678e-06
-4.0004587e-13
-1.7522537e-05
-2.0371987e-13
-2.4588246e-05
3.6962358e-14
-2.8146724e-05
2.6544503e-13
-2.8146724e-05
4.5243623e-13
-2.4588246e-05
3.4776559e-15
-1.7522537e-05
-6.9962679e-06
-2.7046022e-13
-6.996267e-06
-1.9544904e-13
-1.7522536e-05
-3.2616725e-13
-2.4588245e-05
3.2714933e-14
-2.8146723e-05
3.9496994e-13
-2.8146723e-05
2.4856385e-13
-2.4588245e-05
2.9438187e-13
-1.7522536e-05
-6.9962672e-06
2.4847087e-14
-6.9962674e-06
-3.9506629e-13
-1.7522536e-05
-1.9967814e-13
-2.4588246e-05
3.4970321e-14
-2.8146724e-05
2.5756032e-13
-2.8146724e-05
4.4434114e-13
-2.4588246e-05
1.1610499e-15
-1.7522536e-05
-6.9962674e-06
-2.6816495e-13
-6.9962666e-06
-1.9114754e-13
-1.7522536e-05
-3.2155237e-13
-2.4588245e-05
3.0735601e-14
-2.8146723e-05
3.8671815e-13
-2.8146724e-05
2.4123963e-13
-2.4588245e-05
2.9053546e-13
-1.7522536e-05
-6.9962667e-06
2.5853606e-14
-6.996267e-06
-3.8979941e-13
-1.7522536e-05
-1.9536794e-13
-2.4588245e-05
3.3106618e-14
-2.8146724e-05
2.4965594e-13
-2.8146724e-05
4.3616317e-13
-2.4588246e-05
-1.2707011e-15
-1.7522536e-05
-6.996267e-06
-2.6575211e-13
-6.9962662e-06
-1.8652611e-13
-1.7522535e-05
-3.1671115e-13
-2.4588244e-05
2.8886754e-14
-2.8146724e-05
3.7848079e-13
-2.8146724e-05
2.3379701e-13
-2.4588245e-05
2.8667539e-13
-1.7522535e-05
-6.9962663e-06
2.7053313e-14
-6.9962665e-06
-3.8428109e-13
-1.7522535e-05
-1.908198e-13
-2.4588245e-05
3.1368614e-14
-2.8146724e-05
2.4175606e-13
-2.8146725e-05
4.2793045e-13
-2.4588245e-05
-3.7994873e-15
-1.7522535e-05
-6.9962666e-06
-2.6323692e-13
-6.9962658e-06
-1.8162391e-13
-1.7522534e-05
-3.1167152e-13
-2.4588244e-05
2.7165211e-14
-2.8146724e-05
3.7027869e-13
-2.8146724e-05
2.2626705e-13
-2.4588244e-05
2.8281136e-13
-1.7522534e-05
-6.9962659e-06
2.8424281e-14
-6.9962662e-06
-3.7854529e-13
-1.7522534e-05
-1.8606344e-13
-2.4588245e-05
2.9752807e-14
-2.8146725e-05
2.3388244e-13
-2.8146725e-05
4.196686e-13
-2.4588245e-05
-6.4086532e-15
-1.7522534e-05
-6.9962662e-06
-2.6063327e-13
-6.9962654e-06
-1.7647838e-13
-1.7522534e-05
-3.0646038e-13
-2.4588244e-05
2.5566826e-14
-2.8146724e-05
3.6213072e-13
-2.8146724e-05
2.1867844e-13
-2.4588244e-05
2.7895205e-13
-1.7522534e-05
-6.9962655e-06
2.9945818e-14
-6.9962658e-06
-3.7262431e-13
-1.7522534e-05
-1.8112752e-13
-2.4588245e-05
2.8255077e-14
-2.8146725e-05
2.26055e-13
-2.8146725e-05
4.1140104e-13
-2.4588245e-05
-9.0823176e-15
-1.7522534e-05
-6.9962658e-06
-2.5795459e-13
-6.996265e-06
-1.7112496e-13
-1.7522533e-05
-3.0110373e-13
-2.4588244e-05
2.4087216e-14
-2.8146725e-05
3.5405379e-13
-2.8146725e-05
2.1105757e-13
-2.4588244e-05
2.7510553e-13
-1.7522533e-05
-6.9962652e-06
3.1598556e-14
-6.9962654e-06
-3.665487e-13
-1.7522533e-05
-1.7603946e-13
-2.4588245e-05
2.6870688e-14
-2.8146725e-05
2.1829147e-13
-2.8146725e-05
4.031492e-13
-2.4588245e-05
-1.1806121e-14
-1.7522533e-05
-6.9962654e-06
-2.5521283e-13
-6.9962647e-06
-1.6559699e-13
-1.7522533e-05
-2.9562618e-13
-2.4588244e-05
2.2721101e-14
-2.8146725e-05
3.4606281e-13
-2.8146725e-05
2.0342884e-13
-2.4588244e-05
2.7127876e-13
-1.7522533e-05
-6.9962648e-06
3.3363836e-14
-6.9962651e-06
-3.6034673e-13
-1.7522533e-05
-1.7082535e-13
-2.4588244e-05
2.5594617e-14
-2.8146726e-05
2.1060793e-13
-2.8146726e-05
3.9493256e-13
-2.4588245e-05
-1.4566307e-14
-1.7522533e-05
-6.9962651e-06
-2.5241972e-13
-6.9962643e-06
-1.5992584e-13
-1.7522532e-05
-2.9005115e-13
-2.4588244e-05
2.1463403e-14
-2.8146725e-05
3.3817143e-13
-2.8146725e-05
1.9581446e-13
-2.4588244e-05
2.6747811e-13
-1.7522532e-05
-6.9962644e-06
3.5224623e-14
-6.9962647e-06
-3.5404515e-13
-1.7522532e-05
-1.6550992e-13
-2.4588244e-05
2.4421811e-14
-2.8146726e-05
2.0301891e-13
-2.8146726e-05
3.8676888e-13
-2.4588244e-05
-1.7350633e-14
-1.7522532e-05
-6.9962647e-06
-2.495854e-13
-6.996264e-06
-1.5414095e-13
-1.7522531e-05
-2.8440061e-13
-2.4588243e-05
2.0308556e-14
-2.8146725e-05
3.303914e-13
-2.8146726e-05
1.8823485e-13
-2.4588244e-05
2.6370892e-13
-1.7522532e-05
-6.9962641e-06
3.7164765e-14
-6.9962644e-06
-3.4766859e-13
-1.7522532e-05
-1.6011638e-13
-2.4588244e-05
2.334681e-14
-2.8146726e-05
1.9553702e-13
-2.8146726e-05
3.7867377e-13
-2.4588244e-05
-2.0147396e-14
-1.7522532e-05
-6.9962644e-06
-2.4671952e-13
-6.9962637e-06
-1.4826951e-13
-1.7522531e-05
-2.7869543e-13
-2.4588243e-05
1.9251101e-14
-2.8146726e-05
3.2273308e-13
-2.8146726e-05
1.8070841e-13
-2.4588243e-05
2.5997642e-13
-1.7522531e-05
-6.9962638e-06
3.9169373e-14
-6.9962641e-06
-3.4123994e-13
-1.7522531e-05
-1.5466699e-13
-2.4588244e-05
2.2364116e-14
-2.8146726e-05
1.8817378e-13
-2.8146727e-05
3.7066156e-13