/*--------------------------------*- C++ -*----------------------------------*\
| =========                 |                                                 |
| \\      /  F ield         | OpenFOAM: The Open Source CFD Toolbox           |
|  \\    /   O peration     | Version:  5.x                                   |
|   \\  /    A nd           | Web:      www.OpenFOAM.org                      |
|    \\/     M anipulation  |                                                 |
\*---------------------------------------------------------------------------*/
FoamFile
{
    version     2.0;
    format      ascii;
    class       volSymmTensorField;
    location    "1";
    object      sigma;
}
// * * * * * * * * * * * * * * * * * * * * * * * * * * * * * * * * * * * * * //

dimensions      [0 2 -2 0 0 0 0];

internalField   nonuniform List<symmTensor> 
1920
(
(0.00029669912 0.0039281964 0 -0.002793979 0 0)
(-0.00014415486 0.0011563983 0 0.00054172094 0 0)
(-0.00029868566 0.0010313517 0 0.00018656174 0 0)
(8.6025371e-06 0.00036108512 0 2.7950028e-05 0 0)
(8.6137018e-06 -0.00036108978 0 2.7940135e-05 0 0)
(-0.00029868628 -0.0010313544 0 0.00018656211 0 0)
(-0.00014415611 -0.0011564023 0 0.0005417233 0 0)
(0.00029669843 -0.003928196 0 -0.0027939777 0 0)
(0.0016313554 0.002219512 0 -0.0007777507 0 0)
(6.7570886e-05 0.00049546736 0 0.00024626409 0 0)
(-0.00099572684 -6.6479782e-05 0 0.00081740535 0 0)
(-0.0010529761 -1.1076141e-06 0 0.00093905276 0 0)
(-0.0010529724 1.1065713e-06 0 0.00093904392 0 0)
(-0.00099573406 6.651124e-05 0 0.00081741566 0 0)
(6.7572432e-05 -0.00049546047 0 0.00024625859 0 0)
(0.0016313552 -0.0022195136 0 -0.00077774986 0 0)
(0.0010627834 0.0020406023 0 -0.0015330334 0 0)
(0.00035312966 9.2702162e-05 0 -0.00024782965 0 0)
(-0.00068139136 5.010881e-05 0 0.0005948222 0 0)
(-0.00077861756 1.7654356e-05 0 0.00073755919 0 0)
(-0.00077862539 -1.7655989e-05 0 0.00073757206 0 0)
(-0.00068138405 -5.0143074e-05 0 0.00059481021 0 0)
(0.00035313178 -9.2705e-05 0 -0.00024782914 0 0)
(0.0010627834 -0.0020406015 0 -0.0015330347 0 0)
(0.00081946114 0.0019092738 0 -0.0012140739 0 0)
(0.00035023836 0.00035278063 0 -0.00030165882 0 0)
(-0.00046607805 2.7485316e-05 0 0.00043795761 0 0)
(-0.00068975022 -1.2124166e-05 0 0.00068840852 0 0)
(-0.00068973272 1.2117615e-05 0 0.00068838951 0 0)
(-0.00046610351 -2.7483284e-05 0 0.00043798381 0 0)
(0.00035024058 -0.00035277858 0 -0.00030166143 0 0)
(0.00081945922 -0.0019092731 0 -0.001214071 0 0)
(0.00063734622 0.0018411941 0 -0.00091267741 0 0)
(0.00029672901 0.00051195917 0 -0.00028737742 0 0)
(-0.00027986445 0.00019524742 0 0.00025783425 0 0)
(-0.00062424623 1.6157754e-05 0 0.00061480721 0 0)
(-0.0006242792 -1.6162989e-05 0 0.00061484269 0 0)
(-0.00027980106 -0.00019528108 0 0.00025777144 0 0)
(0.00029673548 -0.00051196848 0 -0.00028738373 0 0)
(0.00063735449 -0.0018411953 0 -0.00091268686 0 0)
(0.00042088861 0.0017508577 0 -0.00063308269 0 0)
(0.00024073089 0.00066412957 0 -0.00025713259 0 0)
(-0.0002973782 0.00018442002 0 0.00027842123 0 0)
(-0.00039590639 6.4826897e-05 0 0.00038929019 0 0)
(-0.00039589419 -6.4835554e-05 0 0.00038927571 0 0)
(-0.0002973792 -0.00018442576 0 0.0002784247 0 0)
(0.00024074016 -0.00066412447 0 -0.00025714211 0 0)
(0.00042089234 -0.0017508564 0 -0.0006330857 0 0)
(0.00031709859 0.0017050532 0 -0.00050643118 0 0)
(0.00017530655 0.00083413319 0 -0.00021220091 0 0)
(-0.00012682174 0.00037691767 0 0.00011088902 0 0)
(-0.00032723251 9.1239459e-05 0 0.00032415761 0 0)
(-0.00032722802 -9.1248256e-05 0 0.00032415411 0 0)
(-0.00012682733 -0.00037689911 0 0.00011089357 0 0)
(0.00017531561 -0.0008341343 0 -0.00021220972 0 0)
(0.00031709879 -0.0017050465 0 -0.00050643122 0 0)
(0.00021630181 0.0016635968 0 -0.0003903266 0 0)
(0.00013609704 0.00091115082 0 -0.00018419497 0 0)
(-9.3950238e-05 0.00044253918 0 7.7284088e-05 0 0)
(-0.00024604656 0.00012003132 0 0.000244776 0 0)
(-0.00024601771 -0.00012004818 0 0.00024474669 0 0)
(-9.3935281e-05 -0.0004425516 0 7.7269159e-05 0 0)
(0.00013610962 -0.00091114181 0 -0.00018420748 0 0)
(0.00021630965 -0.001663593 0 -0.00039033421 0 0)
(0.00015278981 0.0016386069 0 -0.00031768599 0 0)
(9.7976747e-05 0.00098226946 0 -0.00015536595 0 0)
(-6.1727166e-05 0.00050483882 0 4.3100053e-05 0 0)
(-0.00017513001 0.00014729689 0 0.00017428036 0 0)
(-0.00017517942 -0.00014728644 0 0.0001743302 0 0)
(-6.1723863e-05 -0.00050482537 0 4.3097159e-05 0 0)
(9.7985327e-05 -0.00098227477 0 -0.00015537569 0 0)
(0.00015279243 -0.0016385966 0 -0.00031768788 0 0)
(0.00010215461 0.0016200514 0 -0.00026132664 0 0)
(7.0852503e-05 0.0010285491 0 -0.00013461183 0 0)
(-3.9098906e-05 0.00055557192 0 1.8354339e-05 0 0)
(-0.00012069585 0.00016962194 0 0.00011965933 0 0)
(-0.00012060202 -0.00016966358 0 0.00011956514 0 0)
(-3.9079666e-05 -0.00055559582 0 1.8334252e-05 0 0)
(7.0868067e-05 -0.0010285325 0 -0.00013462624 0 0)
(0.00010216222 -0.0016200427 0 -0.00026133422 0 0)
(6.7350124e-05 0.0016079612 0 -0.00022314052 0 0)
(5.0357939e-05 0.0010616094 0 -0.00011866422 0 0)
(-2.4220961e-05 0.00059355753 0 1.5778558e-06 0 0)
(-8.1679909e-05 0.00018644201 0 8.0249519e-05 0 0)
(-8.1802077e-05 -0.00018639904 0 8.037198e-05 0 0)
(-2.4221854e-05 -0.00059353549 0 1.579488e-06 0 0)
(5.0359431e-05 -0.0010616182 0 -0.00011866724 0 0)
(6.735343e-05 -0.0016079472 0 -0.00022314265 0 0)
(4.3000428e-05 0.0015998777 0 -0.00019680116 0 0)
(3.4713885e-05 0.0010855354 0 -0.00010615836 0 0)
(-1.4708386e-05 0.00062085874 0 -9.4543791e-06 0 0)
(-5.438036e-05 0.00019869769 0 5.2534336e-05 0 0)
(-5.4211228e-05 -0.00019877488 0 5.2364787e-05 0 0)
(-1.4692005e-05 -0.00062088602 0 -9.4718932e-06 0 0)
(3.4730765e-05 -0.0010855125 0 -0.00010617396 0 0)
(4.3007858e-05 -0.0015998651 0 -0.00019680862 0 0)
(2.73562e-05 0.00159487 0 -0.00018000607 0 0)
(2.3376631e-05 0.0011020103 0 -9.690834e-05 0 0)
(-8.763633e-06 0.00063990485 0 -1.6548257e-05 0 0)
(-3.5796064e-05 0.00020737032 0 3.3596038e-05 0 0)
(-3.5989328e-05 -0.00020729404 0 3.3789616e-05 0 0)
(-8.7673146e-06 -0.00063988179 0 -1.6543747e-05 0 0)
(2.3374712e-05 -0.0011020148 0 -9.6907573e-05 0 0)
(2.7355625e-05 -0.0015948525 0 -0.00018000415 0 0)
(1.7026641e-05 0.0015916713 0 -0.00016900997 0 0)
(1.5427888e-05 0.0011130054 0 -9.0323083e-05 0 0)
(-5.0824301e-06 0.00065298795 0 -2.1049822e-05 0 0)
(-2.3240603e-05 0.00021340825 0 2.0760988e-05 0 0)
(-2.3036093e-05 -0.00021350803 0 2.0555853e-05 0 0)
(-5.0720902e-06 -0.00065301361 0 -2.1061216e-05 0 0)
(1.5437904e-05 -0.0011129874 0 -9.0331978e-05 0 0)
(1.7032906e-05 -0.0015916565 0 -0.00016901614 0 0)
(1.040064e-05 0.0015896861 0 -0.00016200868 0 0)
(9.9697901e-06 0.0011202271 0 -8.573248e-05 0 0)
(-2.8539509e-06 0.00066179871 0 -2.3849624e-05 0 0)
(-1.4637121e-05 0.00021765081 0 1.1954357e-05 0 0)
(-1.4839786e-05 -0.00021756804 0 1.2157458e-05 0 0)
(-2.8591246e-06 -0.00066178083 0 -2.3843745e-05 0 0)
(9.9656528e-06 -0.0011202274 0 -8.5729097e-05 0 0)
(1.0399162e-05 -0.001589668 0 -0.00016200603 0 0)
(6.201212e-06 0.0015884695 0 -0.00015760205 0 0)
(6.3132868e-06 0.0011248558 0 -8.2623033e-05 0 0)
(-1.533747e-06 0.00066761673 0 -2.5551256e-05 0 0)
(-9.2613925e-06 0.00022038272 0 6.4369691e-06 0 0)
(-9.0677696e-06 -0.00022048403 0 6.2427013e-06 0 0)
(-1.5295188e-06 -0.00066763797 0 -2.5556291e-05 0 0)
(6.3176537e-06 -0.0011248417 0 -8.2626501e-05 0 0)
(6.2032847e-06 -0.0015884533 0 -0.00015760387 0 0)
(3.5945053e-06 0.0015877443 0 -0.00015488825 0 0)
(3.9201599e-06 0.0011277621 0 -8.0564831e-05 0 0)
(-7.6816972e-07 0.00067142026 0 -2.6568025e-05 0 0)
(-5.5286168e-06 0.00022231101 0 2.6087414e-06 0 0)
(-5.7073834e-06 -0.00022223784 0 2.7879651e-06 0 0)
(-7.7376641e-07 -0.00067141001 0 -2.6561967e-05 0 0)
(3.914418e-06 -0.0011277604 0 -8.0559472e-05 0 0)
(3.5922536e-06 -0.001587727 0 -0.00015488507 0 0)
(2.0032016e-06 0.0015873224 0 -0.00015324399 0 0)
(2.3663618e-06 0.0011295684 0 -7.9214495e-05 0 0)
(-3.4591035e-07 0.00067382473 0 -2.7149684e-05 0 0)
(-3.4235148e-06 0.00022343608 0 4.419414e-07 0 0)
(-3.2933447e-06 -0.00022351225 0 3.114227e-07 0 0)
(-3.4613186e-07 -0.0006738409 0 -2.7149991e-05 0 0)
(2.3664696e-06 -0.0011295582 0 -7.921398e-05 0 0)
(2.0027986e-06 -0.0015873066 0 -0.00015324323 0 0)
(1.0658003e-06 0.0015870908 0 -0.00015228498 0 0)
(1.397733e-06 0.0011306451 0 -7.8365257e-05 0 0)
(-1.1690972e-07 0.00067535598 0 -2.7478337e-05 0 0)
(-1.8324498e-06 0.00022429067 0 -1.1896988e-06 0 0)
(-1.9406836e-06 -0.00022425022 0 -1.0812715e-06 0 0)
(-1.2217329e-07 -0.00067535269 0 -2.7472864e-05 0 0)
(1.3917239e-06 -0.0011306422 0 -7.8359346e-05 0 0)
(1.063116e-06 -0.0015870751 0 -0.00015228162 0 0)
(5.1794143e-07 0.001586968 0 -0.00015173048 0 0)
(7.8382893e-07 0.0011312949 0 -7.7820096e-05 0 0)
(-7.7107513e-09 0.00067627018 0 -2.7647864e-05 0 0)
(-1.0238553e-06 0.00022474482 0 -2.0230899e-06 0 0)
(-9.2944712e-07 -0.00022480649 0 -2.1181027e-06 0 0)
(-1.0390309e-08 -0.00067628187 0 -2.7645489e-05 0 0)
(7.8141495e-07 -0.0011312878 0 -7.7817303e-05 0 0)
(5.1624803e-07 -0.0015869534 0 -0.0001517284 0 0)
(2.2159812e-07 0.0015869124 0 -0.00015143545 0 0)
(4.268367e-07 0.0011316509 0 -7.7501405e-05 0 0)
(4.2914101e-08 0.00067683822 0 -2.7733689e-05 0 0)
(-4.1710857e-07 0.00022508726 0 -2.6453863e-06 0 0)
(-5.0365112e-07 -0.0002250555 0 -2.5582248e-06 0 0)
(3.8316217e-08 -0.00067683968 0 -2.7729069e-05 0 0)
(4.2142959e-07 -0.0011316474 0 -7.7495926e-05 0 0)
(2.189736e-07 -0.0015868985 0 -0.00015143235 0 0)
(5.7795109e-08 0.0015868906 0 -0.00015127576 0 0)
(2.037977e-07 0.0011318593 0 -7.7298183e-05 0 0)
(5.680601e-08 0.00067714781 0 -2.7767866e-05 0 0)
(-2.8372339e-07 0.00022517585 0 -2.7853173e-06 0 0)
(-2.012248e-07 -0.00022523428 0 -2.8687519e-06 0 0)
(5.3180382e-08 -0.0006771561 0 -2.7764396e-05 0 0)
(2.0028015e-07 -0.0011318543 0 -7.7294453e-05 0 0)
(5.5674512e-08 -0.0015868776 0 -0.00015127327 0 0)
(-1.5375816e-08 0.0015868903 0 -0.00015120744 0 0)
(9.0460059e-08 0.0011319527 0 -7.7195298e-05 0 0)
(5.7123762e-08 0.00067733544 0 -2.7778501e-05 0 0)
(1.717341e-09 0.00022534453 0 -3.0770689e-06 0 0)
(-5.1463629e-08 -0.00022532715 0 -3.0235014e-06 0 0)
(5.3158162e-08 -0.00067733932 0 -2.7774618e-05 0 0)
(8.5926792e-08 -0.001131949 0 -7.7190618e-05 0 0)
(-1.7665562e-08 -0.0015868781 0 -0.00015120482 0 0)
(-5.0397262e-08 0.0015868996 0 -0.00015117718 0 0)
(1.7668215e-08 0.0011320054 0 -7.7126288e-05 0 0)
(4.9400294e-08 0.00067741969 0 -2.7776487e-05 0 0)
(-4.7753663e-09 0.00022534721 0 -3.072113e-06 0 0)
(1.5876592e-08 -0.00022537226 0 -3.0929915e-06 0 0)
(4.5679514e-08 -0.00067742573 0 -2.7772842e-05 0 0)
(1.3854839e-08 -0.0011320015 0 -7.7122353e-05 0 0)
(-5.2450134e-08 -0.0015868881 0 -0.00015117479 0 0)
(-5.7953991e-08 0.0015869091 0 -0.0001511733 0 0)
(-8.5444546e-09 0.001132019 0 -7.7102035e-05 0 0)
(4.0219157e-08 0.00067746957 0 -2.7769112e-05 0 0)
(4.3703716e-08 0.00022537933 0 -3.1220081e-06 0 0)
(3.8455338e-08 -0.00022538773 0 -3.1167736e-06 0 0)
(3.6658619e-08 -0.0006774743 0 -2.7765668e-05 0 0)
(-1.2339632e-08 -0.0011320155 0 -7.7098071e-05 0 0)
(-5.992944e-08 -0.0015868984 0 -0.00015117108 0 0)
(-5.4637042e-08 0.0015869208 0 -0.00015117994 0 0)
(-3.1187147e-08 0.0011320259 0 -7.7078364e-05 0 0)
(3.2576418e-08 0.00067748148 0 -2.7762578e-05 0 0)
(6.3558177e-08 0.00022539696 0 -3.1423465e-06 0 0)
(5.7388329e-08 -0.0002254032 0 -3.136248e-06 0 0)
(2.909827e-08 -0.00067748623 0 -2.7759139e-05 0 0)
(-3.4671639e-08 -0.0011320225 0 -7.7074793e-05 0 0)
(-5.6510335e-08 -0.0015869106 0 -0.00015117777 0 0)
(-4.6411214e-08 0.0015869297 0 -0.00015119043 0 0)
(-2.7855185e-08 0.0011320211 0 -7.7081627e-05 0 0)
(2.282347e-08 0.00067748717 0 -2.7752053e-05 0 0)
(5.3558661e-08 0.0002253892 0 -3.1324688e-06 0 0)
(5.4406373e-08 -0.0002254009 0 -3.1333435e-06 0 0)
(1.9481338e-08 -0.00067749156 0 -2.7748834e-05 0 0)
(-3.1486302e-08 -0.0011320177 0 -7.7077813e-05 0 0)
(-4.8213029e-08 -0.0015869202 0 -0.00015118845 0 0)
(-3.8463724e-08 0.0015869367 0 -0.00015119992 0 0)
(-2.8894412e-08 0.0011320107 0 -7.7079633e-05 0 0)
(1.8647923e-08 0.00067748006 0 -2.7747785e-05 0 0)
(4.8388139e-08 0.00022539231 0 -3.1271419e-06 0 0)
(4.7721896e-08 -0.00022540087 0 -3.1265893e-06 0 0)
(1.5421663e-08 -0.00067748403 0 -2.7744575e-05 0 0)
(-3.212363e-08 -0.0011320078 0 -7.7076345e-05 0 0)
(-3.9922699e-08 -0.001586928 0 -0.00015119824 0 0)
(-2.9821362e-08 0.0015869431 0 -0.00015120983 0 0)
(-2.3799638e-08 0.0011320031 0 -7.7084003e-05 0 0)
(1.4590856e-08 0.00067747271 0 -2.7742904e-05 0 0)
(4.6996169e-08 0.00022538867 0 -3.1257813e-06 0 0)
(4.4243214e-08 -0.00022539658 0 -3.1230101e-06 0 0)
(1.1273341e-08 -0.0006774763 0 -2.7739669e-05 0 0)
(-2.7109116e-08 -0.0011320005 0 -7.7080536e-05 0 0)
(-3.1487419e-08 -0.0015869348 0 -0.00015120801 0 0)
(-2.4723277e-08 0.0015869475 0 -0.00015121567 0 0)
(-2.1948019e-08 0.001132 0 -7.7085074e-05 0 0)
(7.3697541e-09 0.00067745904 0 -2.773522e-05 0 0)
(3.2443109e-08 0.0002253842 0 -3.1108996e-06 0 0)
(3.2939171e-08 -0.0002253925 0 -3.111494e-06 0 0)
(4.6933097e-09 -0.00067746311 0 -2.7732568e-05 0 0)
(-2.4982873e-08 -0.0011319972 0 -7.7081977e-05 0 0)
(-2.6120904e-08 -0.0015869399 0 -0.00015121409 0 0)
(-1.8209589e-08 0.001586952 0 -0.00015122284 0 0)
(-1.6626109e-08 0.0011319917 0 -7.7090004e-05 0 0)
(8.413067e-09 0.00067745495 0 -2.7735761e-05 0 0)
(3.6327637e-08 0.00022538367 0 -3.1148578e-06 0 0)
(3.2965308e-08 -0.00022538989 0 -3.1114753e-06 0 0)
(5.2781373e-09 -0.00067745778 0 -2.7732694e-05 0 0)
(-1.970892e-08 -0.0011319893 0 -7.7086789e-05 0 0)
(-1.9712424e-08 -0.0015869448 0 -0.00015122122 0 0)
(-1.5402949e-08 0.0015869549 0 -0.00015122598 0 0)
(-1.5458427e-08 0.0011319897 0 -7.7090577e-05 0 0)
(5.2816993e-09 0.00067744568 0 -2.7732397e-05 0 0)
(2.3119688e-08 0.00022537817 0 -3.1013434e-06 0 0)
(2.2352261e-08 -0.00022538512 0 -3.1006448e-06 0 0)
(2.4536733e-09 -0.00067744885 0 -2.772959e-05 0 0)
(-1.8331291e-08 -0.0011319873 0 -7.7087633e-05 0 0)
(-1.6746864e-08 -0.0015869484 0 -0.00015122449 0 0)
(-1.1575725e-08 0.0015869579 0 -0.00015123012 0 0)
(-1.1532173e-08 0.0011319839 0 -7.7094426e-05 0 0)
(5.861197e-09 0.00067744217 0 -2.7732522e-05 0 0)
(2.4997069e-08 0.00022537769 0 -3.1032945e-06 0 0)
(2.376429e-08 -0.00022538354 0 -3.1020721e-06 0 0)
(3.0731663e-09 -0.00067744477 0 -2.7729781e-05 0 0)
(-1.440631e-08 -0.0011319819 0 -7.7091439e-05 0 0)
(-1.2963922e-08 -0.0015869518 0 -0.00015122863 0 0)
(-9.8930281e-09 0.0015869601 0 -0.00015123195 0 0)
(-1.0692122e-08 0.0011319824 0 -7.7094825e-05 0 0)
(3.8002369e-09 0.00067743501 0 -2.7730439e-05 0 0)
(1.7792815e-08 0.0002253738 0 -3.0958733e-06 0 0)
(1.6647088e-08 -0.00022537962 0 -3.0947786e-06 0 0)
(1.1469508e-09 -0.00067743767 0 -2.7727805e-05 0 0)
(-1.3359317e-08 -0.0011319805 0 -7.7092085e-05 0 0)
(-1.1144745e-08 -0.0015869545 0 -0.00015123058 0 0)
(-8.0843124e-09 0.0015869621 0 -0.0001512339 0 0)
(-8.5948517e-09 0.001131979 0 -7.7097037e-05 0 0)
(4.1112958e-09 0.00067743199 0 -2.7730383e-05 0 0)
(1.6038507e-08 0.00022537197 0 -3.0941799e-06 0 0)
(1.5462373e-08 -0.00022537725 0 -3.0936229e-06 0 0)
(1.6007088e-09 -0.00067743435 0 -2.7727905e-05 0 0)
(-1.1211405e-08 -0.0011319773 0 -7.7094325e-05 0 0)
(-9.3509271e-09 -0.001586957 0 -0.00015123255 0 0)
(-6.9385192e-09 0.0015869638 0 -0.00015123511 0 0)
(-7.6902476e-09 0.0011319775 0 -7.7097569e-05 0 0)
(3.0441047e-09 0.00067742709 0 -2.772943e-05 0 0)
(1.3313172e-08 0.00022537008 0 -3.0913114e-06 0 0)
(1.1900484e-08 -0.00022537466 0 -3.0899329e-06 0 0)
(6.5264121e-10 -0.00067742938 0 -2.7727056e-05 0 0)
(-1.0108568e-08 -0.001131976 0 -7.7095082e-05 0 0)
(-8.0920246e-09 -0.0015869592 0 -0.00015123387 0 0)
(-6.242322e-09 0.0015869654 0 -0.00015123588 0 0)
(-6.9665831e-09 0.0011319756 0 -7.7098517e-05 0 0)
(3.1307194e-09 0.00067742463 0 -2.7729191e-05 0 0)
(1.2868696e-08 0.00022536934 0 -3.0909531e-06 0 0)
(1.222838e-08 -0.00022537387 0 -3.0903296e-06 0 0)
(9.1484947e-10 -0.00067742672 0 -2.7727001e-05 0 0)
(-9.2770082e-09 -0.0011319742 0 -7.7096125e-05 0 0)
(-7.3672425e-09 -0.0015869613 0 -0.00015123469 0 0)
(-5.510773e-09 0.0015869669 0 -0.00015123664 0 0)
(-6.06692e-09 0.0011319743 0 -7.7099065e-05 0 0)
(2.5778945e-09 0.0006774212 0 -2.7728831e-05 0 0)
(1.1408644e-08 0.00022536777 0 -3.0893742e-06 0 0)
(1.0517751e-08 -0.00022537216 0 -3.0885153e-06 0 0)
(4.9731775e-10 -0.00067742316 0 -2.7726765e-05 0 0)
(-8.1872944e-09 -0.0011319731 0 -7.7096884e-05 0 0)
(-6.5334539e-09 -0.0015869631 0 -0.00015123554 0 0)
(-5.229929e-09 0.0015869683 0 -0.00015123697 0 0)
(-6.0069328e-09 0.0011319731 0 -7.7099401e-05 0 0)
(2.6207883e-09 0.00067741906 0 -2.7728564e-05 0 0)
(1.1027161e-08 0.00022536689 0 -3.0890862e-06 0 0)
(1.045926e-08 -0.00022537077 0 -3.0885306e-06 0 0)
(7.1966455e-10 -0.00067742088 0 -2.7726684e-05 0 0)
(-7.9795894e-09 -0.001131972 0 -7.7097361e-05 0 0)
(-6.1972371e-09 -0.0015869649 0 -0.00015123595 0 0)
(-4.8129579e-09 0.0015869695 0 -0.00015123739 0 0)
(-5.2903943e-09 0.001131972 0 -7.7099781e-05 0 0)
(2.2289033e-09 0.00067741665 0 -2.7728405e-05 0 0)
(1.0266335e-08 0.00022536568 0 -3.0882171e-06 0 0)
(9.5582455e-09 -0.00022536941 0 -3.0875377e-06 0 0)
(4.8343574e-10 -0.00067741832 0 -2.7726671e-05 0 0)
(-7.0812375e-09 -0.001131971 0 -7.7097939e-05 0 0)
(-5.6772479e-09 -0.0015869665 0 -0.00015123646 0 0)
(-4.655453e-09 0.0015869708 0 -0.00015123759 0 0)
(-5.4320022e-09 0.0011319711 0 -7.7099936e-05 0 0)
(2.3093756e-09 0.00067741454 0 -2.7728191e-05 0 0)
(9.8713425e-09 0.00022536489 0 -3.0879192e-06 0 0)
(9.3223989e-09 -0.00022536805 0 -3.087378e-06 0 0)
(7.3308399e-10 -0.00067741611 0 -2.7726634e-05 0 0)
(-7.0591247e-09 -0.0011319702 0 -7.7098255e-05 0 0)
(-5.4551139e-09 -0.0015869681 0 -0.00015123675 0 0)
(-4.4159237e-09 0.001586972 0 -0.00015123782 0 0)
(-4.8910166e-09 0.0011319702 0 -7.7100151e-05 0 0)
(1.9372013e-09 0.00067741269 0 -2.7728066e-05 0 0)
(9.4381685e-09 0.00022536384 0 -3.0873815e-06 0 0)
(8.8680398e-09 -0.00022536692 0 -3.0868376e-06 0 0)
(5.230066e-10 -0.00067741411 0 -2.7726663e-05 0 0)
(-6.3486962e-09 -0.0011319694 0 -7.7098652e-05 0 0)
(-5.1159912e-09 -0.0015869695 0 -0.00015123707 0 0)
(-4.3045675e-09 0.0015869732 0 -0.00015123797 0 0)
(-5.0887904e-09 0.0011319694 0 -7.7100259e-05 0 0)
(2.0588927e-09 0.00067741063 0 -2.7727908e-05 0 0)
(9.0444947e-09 0.00022536311 0 -3.0870873e-06 0 0)
(8.5719151e-09 -0.00022536571 0 -3.0866189e-06 0 0)
(7.9591005e-10 -0.00067741196 0 -2.7726663e-05 0 0)
(-6.3859359e-09 -0.0011319687 0 -7.7098919e-05 0 0)
(-4.9394788e-09 -0.001586971 0 -0.0001512373 0 0)
(-4.1484434e-09 0.0015869742 0 -0.00015123812 0 0)
(-4.6369107e-09 0.0011319686 0 -7.7100389e-05 0 0)
(1.6899859e-09 0.00067740906 0 -2.7727792e-05 0 0)
(8.7735858e-09 0.00022536215 0 -3.0867129e-06 0 0)
(8.3245582e-09 -0.0002253647 0 -3.0862884e-06 0 0)
(5.8098803e-10 -0.00067741025 0 -2.7726692e-05 0 0)
(-5.7818128e-09 -0.001131968 0 -7.7099212e-05 0 0)
(-4.6931637e-09 -0.0015869723 0 -0.00015123753 0 0)
(-4.057445e-09 0.0015869754 0 -0.00015123824 0 0)
(-4.8560103e-09 0.0011319679 0 -7.7100481e-05 0 0)
(1.8400722e-09 0.00067740713 0 -2.7727668e-05 0 0)
(8.3950526e-09 0.00022536147 0 -3.0864356e-06 0 0)
(8.0155796e-09 -0.00022536362 0 -3.0860576e-06 0 0)
(8.6021245e-10 -0.00067740822 0 -2.7726706e-05 0 0)
(-5.8558231e-09 -0.0011319673 0 -7.7099448e-05 0 0)
(-4.5431287e-09 -0.0015869736 0 -0.00015123773 0 0)
(-3.9386569e-09 0.0015869764 0 -0.00015123835 0 0)
(-4.4384817e-09 0.0011319672 0 -7.7100577e-05 0 0)
(1.4798111e-09 0.00067740572 0 -2.7727564e-05 0 0)
(8.2063308e-09 0.00022536057 0 -3.0861436e-06 0 0)
(7.8619407e-09 -0.00022536268 0 -3.0858225e-06 0 0)
(6.3667371e-10 -0.0006774067 0 -2.7726729e-05 0 0)
(-5.3079102e-09 -0.0011319667 0 -7.7099684e-05 0 0)
(-4.3462244e-09 -0.0015869748 0 -0.00015123791 0 0)
(-3.8561605e-09 0.0015869776 0 -0.00015123846 0 0)
(-4.6665547e-09 0.0011319666 0 -7.7100665e-05 0 0)
(1.6495243e-09 0.00067740389 0 -2.7727463e-05 0 0)
(7.8472103e-09 0.00022535992 0 -3.085887e-06 0 0)
(7.557186e-09 -0.0002253617 0 -3.0855963e-06 0 0)
(9.1177444e-10 -0.00067740479 0 -2.7726742e-05 0 0)
(-5.4128637e-09 -0.0011319661 0 -7.7099894e-05 0 0)
(-4.2147299e-09 -0.0015869761 0 -0.00015123808 0 0)
(-3.7543854e-09 0.0015869785 0 -0.00015123856 0 0)
(-4.2592169e-09 0.0011319659 0 -7.710075e-05 0 0)
(1.3016438e-09 0.00067740258 0 -2.7727373e-05 0 0)
(7.7034804e-09 0.00022535906 0 -3.08564e-06 0 0)
(7.4463625e-09 -0.00022536082 0 -3.0854053e-06 0 0)
(6.7900899e-10 -0.0006774034 0 -2.7726758e-05 0 0)
(-4.8988777e-09 -0.0011319655 0 -7.7100094e-05 0 0)
(-4.0479238e-09 -0.0015869772 0 -0.00015123823 0 0)
(-3.6746017e-09 0.0015869796 0 -0.00015123866 0 0)
(-4.4900667e-09 0.0011319653 0 -7.7100838e-05 0 0)
(1.4870571e-09 0.00067740085 0 -2.7727289e-05 0 0)
(7.363806e-09 0.00022535844 0 -3.0854039e-06 0 0)
(7.1505661e-09 -0.00022535992 0 -3.0851883e-06 0 0)
(9.4647594e-10 -0.0006774016 0 -2.7726765e-05 0 0)
(-5.0308091e-09 -0.0011319649 0 -7.710028e-05 0 0)
(-3.9305443e-09 -0.0015869784 0 -0.00015123839 0 0)
(-3.581059e-09 0.0015869805 0 -0.00015123875 0 0)
(-4.0830928e-09 0.0011319647 0 -7.7100922e-05 0 0)
(1.1521589e-09 0.00067739963 0 -2.7727214e-05 0 0)
(7.2476745e-09 0.00022535762 0 -3.0851846e-06 0 0)
(7.0601441e-09 -0.00022535911 0 -3.0850187e-06 0 0)
(7.0428973e-10 -0.00067740031 0 -2.7726773e-05 0 0)
(-4.5403652e-09 -0.0011319643 0 -7.7100454e-05 0 0)
(-3.7848292e-09 -0.0015869794 0 -0.00015123852 0 0)
(-3.5012459e-09 0.0015869816 0 -0.00015123885 0 0)
(-4.3137141e-09 0.0011319642 0 -7.7101014e-05 0 0)
(1.3509963e-09 0.00067739798 0 -2.7727144e-05 0 0)
(6.9255799e-09 0.00022535702 0 -3.0849669e-06 0 0)
(6.7735076e-09 -0.00022535827 0 -3.084811e-06 0 0)
(9.6378229e-10 -0.0006773986 0 -2.7726774e-05 0 0)
(-4.6954238e-09 -0.0011319637 0 -7.7100621e-05 0 0)
(-3.6784961e-09 -0.0015869805 0 -0.00015123866 0 0)
(-3.4122651e-09 0.0015869825 0 -0.00015123894 0 0)
(-3.9036721e-09 0.0011319636 0 -7.71011e-05 0 0)
(1.028029e-09 0.00067739683 0 -2.7727083e-05 0 0)
(6.8284181e-09 0.00022535623 0 -3.0847667e-06 0 0)
(6.693939e-09 -0.00022535753 0 -3.0846533e-06 0 0)
(7.1271923e-10 -0.0006773974 0 -2.7726774e-05 0 0)
(-4.222852e-09 -0.0011319632 0 -7.7100774e-05 0 0)
(-3.5489937e-09 -0.0015869814 0 -0.00015123878 0 0)
(-3.3313252e-09 0.0015869835 0 -0.00015123904 0 0)
(-4.1330418e-09 0.0011319631 0 -7.7101195e-05 0 0)
(1.2382564e-09 0.00067739525 0 -2.7727025e-05 0 0)
(6.5214176e-09 0.00022535565 0 -3.0845648e-06 0 0)
(6.4153545e-09 -0.00022535673 0 -3.0844538e-06 0 0)
(9.6509573e-10 -0.00067739578 0 -2.7726768e-05 0 0)
(-4.3973096e-09 -0.0011319627 0 -7.7100924e-05 0 0)
(-3.4512926e-09 -0.0015869825 0 -0.0001512389 0 0)
(-3.2455151e-09 0.0015869843 0 -0.00015123912 0 0)
(-3.7193576e-09 0.0011319625 0 -7.7101285e-05 0 0)
(9.2542035e-10 0.00067739417 0 -2.7726975e-05 0 0)
(6.4385042e-09 0.00022535491 0 -3.084379e-06 0 0)
(6.3426466e-09 -0.00022535606 0 -3.0843038e-06 0 0)
(7.0629122e-10 -0.00067739467 0 -2.7726762e-05 0 0)
(-3.9388448e-09 -0.0011319622 0 -7.7101062e-05 0 0)
(-3.3348266e-09 -0.0015869833 0 -0.00015123901 0 0)
(-3.1632542e-09 0.0015869853 0 -0.00015123922 0 0)
(-3.9475928e-09 0.001131962 0 -7.7101383e-05 0 0)
(1.1450352e-09 0.00067739267 0 -2.7726928e-05 0 0)
(6.1441658e-09 0.00022535435 0 -3.0841904e-06 0 0)
(6.0710099e-09 -0.00022535529 0 -3.0841112e-06 0 0)
(9.5282518e-10 -0.00067739313 0 -2.7726752e-05 0 0)
(-4.1292651e-09 -0.0011319617 0 -7.7101198e-05 0 0)
(-3.2437903e-09 -0.0015869844 0 -0.00015123912 0 0)
(-3.0802423e-09 0.0015869861 0 -0.0001512393 0 0)
(-3.5309339e-09 0.0011319615 0 -7.7101475e-05 0 0)
(8.4036063e-10 0.00067739166 0 -2.7726887e-05 0 0)
(6.0726312e-09 0.00022535364 0 -3.0840162e-06 0 0)
(6.0035041e-09 -0.00022535469 0 -3.0839674e-06 0 0)
(6.8776123e-10 -0.0006773921 0 -2.772674e-05 0 0)
(-3.6820592e-09 -0.0011319612 0 -7.7101323e-05 0 0)
(-3.1380088e-09 -0.0015869852 0 -0.00015123922 0 0)
(-2.9969386e-09 0.001586987 0 -0.0001512394 0 0)
(-3.7587155e-09 0.0011319611 0 -7.7101576e-05 0 0)
(1.0674516e-09 0.00067739023 0 -2.7726848e-05 0 0)
(5.7888917e-09 0.0002253531 0 -3.0838386e-06 0 0)
(5.7381127e-09 -0.00022535395 0 -3.083781e-06 0 0)
(9.2978545e-10 -0.00067739064 0 -2.7726726e-05 0 0)
(-3.885432e-09 -0.0011319607 0 -7.7101448e-05 0 0)
(-3.0520634e-09 -0.0015869861 0 -0.00015123933 0 0)
(-2.9167931e-09 0.0015869877 0 -0.00015123947 0 0)
(-3.3402212e-09 0.0011319606 0 -7.7101669e-05 0 0)
(7.6910555e-10 0.00067738928 0 -2.7726815e-05 0 0)
(5.7268453e-09 0.00022535244 0 -3.0836742e-06 0 0)
(5.6751361e-09 -0.00022535341 0 -3.0836425e-06 0 0)
(6.6002902e-10 -0.00067738967 0 -2.7726711e-05 0 0)
(-3.4472415e-09 -0.0011319603 0 -7.7101563e-05 0 0)
(-2.9551379e-09 -0.0015869869 0 -0.00015123942 0 0)
(-2.8329394e-09 0.0015869886 0 -0.00015123957 0 0)
(-3.5684299e-09 0.0011319602 0 -7.7101771e-05 0 0)
(1.001962e-09 0.00067738791 0 -2.7726782e-05 0 0)
(5.4521095e-09 0.00022535191 0 -3.0835059e-06 0 0)
(5.4156947e-09 -0.00022535269 0 -3.0834619e-06 0 0)
(8.987695e-10 -0.00067738829 0 -2.7726694e-05 0 0)
(-3.6610546e-09 -0.0011319598 0 -7.7101679e-05 0 0)
(-2.8730779e-09 -0.0015869878 0 -0.00015123952 0 0)
(-2.7558939e-09 0.0015869893 0 -0.00015123965 0 0)
(-3.1493334e-09 0.0011319597 0 -7.7101865e-05 0 0)
(7.0839412e-10 0.00067738703 0 -2.7726755e-05 0 0)
(5.3982543e-09 0.00022535129 0 -3.0833499e-06 0 0)
(5.3570117e-09 -0.00022535221 0 -3.0833284e-06 0 0)
(6.2578615e-10 -0.00067738739 0 -2.7726676e-05 0 0)
(-3.2301372e-09 -0.0011319594 0 -7.7101786e-05 0 0)
(-2.7835893e-09 -0.0015869885 0 -0.0001512396 0 0)
(-2.6720457e-09 0.0015869901 0 -0.00015123974 0 0)
(-3.3788388e-09 0.0011319593 0 -7.7101967e-05 0 0)
(9.4557029e-10 0.00067738573 0 -2.7726726e-05 0 0)
(5.1313737e-09 0.00022535078 0 -3.0831896e-06 0 0)
(5.1035077e-09 -0.00022535151 0 -3.0831535e-06 0 0)
(8.6228723e-10 -0.00067738608 0 -2.7726657e-05 0 0)
(-3.4523838e-09 -0.001131959 0 -7.7101894e-05 0 0)
(-2.7045416e-09 -0.0015869893 0 -0.0001512397 0 0)
(-2.5983656e-09 0.0015869908 0 -0.00015123981 0 0)
(-2.9602857e-09 0.0011319589 0 -7.7102059e-05 0 0)
(6.5555808e-10 0.0006773849 0 -2.7726703e-05 0 0)
(5.0848155e-09 0.00022535021 0 -3.0830412e-06 0 0)
(5.0490917e-09 -0.00022535108 0 -3.0830249e-06 0 0)
(5.8734309e-10 -0.00067738524 0 -2.7726639e-05 0 0)
(-3.0274378e-09 -0.0011319585 0 -7.7101995e-05 0 0)
(-2.6214132e-09 -0.00158699 0 -0.00015123978 0 0)
(-2.5150574e-09 0.0015869916 0 -0.0001512399 0 0)
(-3.1918422e-09 0.0011319585 0 -7.710216e-05 0 0)
(8.9588961e-10 0.00067738367 0 -2.7726678e-05 0 0)
(4.8250149e-09 0.00022534971 0 -3.0828881e-06 0 0)
(4.8016698e-09 -0.00022535041 0 -3.0828559e-06 0 0)
(8.2244213e-10 -0.000677384 0 -2.7726619e-05 0 0)
(-3.2565781e-09 -0.0011319582 0 -7.7102097e-05 0 0)
(-2.5447885e-09 -0.0015869908 0 -0.00015123987 0 0)
(-2.4449779e-09 0.0015869922 0 -0.00015123998 0 0)
(-2.7748116e-09 0.0011319581 0 -7.7102251e-05 0 0)
(6.0852321e-10 0.0006773829 0 -2.7726658e-05 0 0)
(4.7851472e-09 0.00022534918 0 -3.0827466e-06 0 0)
(4.751598e-09 -0.00022535003 0 -3.0827322e-06 0 0)
(5.4656867e-10 -0.00067738321 0 -2.7726599e-05 0 0)
(-2.8366778e-09 -0.0011319578 0 -7.7102192e-05 0 0)
(-2.4672267e-09 -0.0015869914 0 -0.00015123994 0 0)
(-2.3626828e-09 0.0015869929 0 -0.00015124006 0 0)
(-3.0090182e-09 0.0011319577 0 -7.710235e-05 0 0)
(8.5111155e-10 0.00067738173 0 -2.7726636e-05 0 0)
(4.5319355e-09 0.00022534871 0 -3.0826e-06 0 0)
(4.5104653e-09 -0.00022534937 0 -3.0825692e-06 0 0)
(7.8090386e-10 -0.00067738204 0 -2.772658e-05 0 0)
(-3.0715709e-09 -0.0011319574 0 -7.710229e-05 0 0)
(-2.3926626e-09 -0.0015869921 0 -0.00015124003 0 0)
(-2.2963842e-09 0.0015869935 0 -0.00015124013 0 0)
(-2.5943024e-09 0.0011319574 0 -7.7102439e-05 0 0)
(5.6574904e-10 0.00067738101 0 -2.7726619e-05 0 0)
(4.4983593e-09 0.00022534822 0 -3.082465e-06 0 0)
(4.4648603e-09 -0.00022534904 0 -3.0824504e-06 0 0)
(5.0490234e-10 -0.00067738131 0 -2.772656e-05 0 0)
(-2.656094e-09 -0.001131957 0 -7.7102379e-05 0 0)
(-2.3200974e-09 -0.0015869927 0 -0.0001512401 0 0)
(-2.2154993e-09 0.0015869942 0 -0.00015124022 0 0)
(-2.8316026e-09 0.001131957 0 -7.7102535e-05 0 0)
(8.0992553e-10 0.00067737991 0 -2.7726599e-05 0 0)
(4.2514473e-09 0.00022534776 0 -3.0823247e-06 0 0)
(4.2302294e-09 -0.00022534841 0 -3.0822936e-06 0 0)
(7.3893861e-10 -0.0006773802 0 -2.7726541e-05 0 0)
(-2.8959209e-09 -0.0011319567 0 -7.7102473e-05 0 0)
(-2.2474016e-09 -0.0015869934 0 -0.00015124018 0 0)
(-2.1531012e-09 0.0015869947 0 -0.00015124028 0 0)
(-2.4198135e-09 0.0011319567 0 -7.710262e-05 0 0)
(5.2613749e-10 0.00067737924 0 -2.7726583e-05 0 0)
(4.223907e-09 0.00022534731 0 -3.0821959e-06 0 0)
(4.1892224e-09 -0.0002253481 0 -3.0821798e-06 0 0)
(4.6340654e-10 -0.00067737952 0 -2.7726522e-05 0 0)
(-2.4844755e-09 -0.0011319564 0 -7.7102558e-05 0 0)
(-2.1794309e-09 -0.001586994 0 -0.00015124025 0 0)
(-2.073948e-09 0.0015869954 0 -0.00015124036 0 0)
(-2.6605133e-09 0.0011319563 0 -7.7102713e-05 0 0)
(7.7142142e-10 0.00067737819 0 -2.7726565e-05 0 0)
(3.9831392e-09 0.00022534688 0 -3.0820615e-06 0 0)
(3.9612802e-09 -0.00022534751 0 -3.0820294e-06 0 0)
(6.9746812e-10 -0.00067737847 0 -2.7726503e-05 0 0)
(-2.7286626e-09 -0.001131956 0 -7.7102647e-05 0 0)
(-2.1085306e-09 -0.0015869946 0 -0.00015124033 0 0)
(-2.0155144e-09 0.0015869959 0 -0.00015124043 0 0)
(-2.2521042e-09 0.001131956 0 -7.7102796e-05 0 0)
(4.8893682e-10 0.00067737758 0 -2.772655e-05 0 0)
(3.9614718e-09 0.00022534646 0 -3.0819387e-06 0 0)
(3.9249859e-09 -0.00022534723 0 -3.0819205e-06 0 0)
(4.228342e-10 -0.00067737784 0 -2.7726485e-05 0 0)
(-2.3210204e-09 -0.0011319557 0 -7.7102729e-05 0 0)
(-2.0448716e-09 -0.0015869951 0 -0.00015124039 0 0)
(-1.9383449e-09 0.0015869965 0 -0.00015124051 0 0)
(-2.4963958e-09 0.0011319557 0 -7.7102885e-05 0 0)
(7.3499312e-10 0.00067737659 0 -2.7726533e-05 0 0)
(3.7267738e-09 0.00022534605 0 -3.0818102e-06 0 0)
(3.7038808e-09 -0.00022534666 0 -3.0817767e-06 0 0)
(6.571373e-10 -0.00067737686 0 -2.7726467e-05 0 0)
(-2.5691728e-09 -0.0011319554 0 -7.7102814e-05 0 0)
(-1.9757706e-09 -0.0015869958 0 -0.00015124047 0 0)
(-1.8838912e-09 0.001586997 0 -0.00015124057 0 0)
(-2.0916867e-09 0.0011319554 0 -7.7102964e-05 0 0)