/*--------------------------------*- C++ -*----------------------------------*\
| =========                 |                                                 |
| \\      /  F ield         | OpenFOAM: The Open Source CFD Toolbox           |
|  \\    /   O peration     | Version:  5.x                                   |
|   \\  /    A nd           | Web:      www.OpenFOAM.org                      |
|    \\/     M anipulation  |                                                 |
\*---------------------------------------------------------------------------*/
FoamFile
{
    version     2.0;
    format      ascii;
    class       volSymmTensorField;
    location    "1";
    object      sigma_0;
}
// * * * * * * * * * * * * * * * * * * * * * * * * * * * * * * * * * * * * * //

dimensions      [0 2 -2 0 0 0 0];

internalField   nonuniform List<symmTensor> 
1920
(
(9.6830275e-05 0.0031073168 0 -0.0024234309 0 0)
(-0.00014596501 0.00078715522 0 0.00045877834 0 0)
(-0.00019237992 0.0008408526 0 9.1127947e-05 0 0)
(0.00010394517 0.00029771463 0 -7.0043844e-05 0 0)
(0.00010395627 -0.00029771863 0 -7.0053082e-05 0 0)
(-0.00019238069 -0.00084085484 0 9.112796e-05 0 0)
(-0.0001459664 -0.00078715917 0 0.00045878126 0 0)
(9.6829569e-05 -0.0031073162 0 -0.0024234295 0 0)
(0.0013408098 0.001548172 0 -0.0005356123 0 0)
(2.84145e-05 0.00033648299 0 0.00021115596 0 0)
(-0.00083996223 -0.00015597694 0 0.00067670038 0 0)
(-0.00088344359 -3.4898865e-05 0 0.00077672064 0 0)
(-0.00088344032 3.4898467e-05 0 0.00077671084 0 0)
(-0.00083996969 0.00015600857 0 0.00067671201 0 0)
(2.8415735e-05 -0.0003364756 0 0.00021114994 0 0)
(0.0013408094 -0.0015481739 0 -0.00053561098 0 0)
(0.00078004014 0.0014554259 0 -0.0012479703 0 0)
(0.00028641637 -1.4640186e-05 0 -0.0002236742 0 0)
(-0.00053353721 1.3355521e-05 0 0.0004561764 0 0)
(-0.00058036559 4.6793106e-06 0 0.00054221435 0 0)
(-0.00058037348 -4.6807528e-06 0 0.00054222854 0 0)
(-0.00053353038 -1.3389204e-05 0 0.00045616362 0 0)
(0.000286418 1.4637045e-05 0 -0.00022367243 0 0)
(0.00078003994 -0.0014554249 0 -0.0012479717 0 0)
(0.00058786803 0.0013685967 0 -0.0009652576 0 0)
(0.00027256976 0.0002307051 0 -0.00024469942 0 0)
(-0.00034551797 -3.9190223e-06 0 0.00032119369 0 0)
(-0.00050063034 -1.9310224e-05 0 0.00049731288 0 0)
(-0.00050061237 1.9303839e-05 0 0.00049729235 0 0)
(-0.00034554413 3.9208627e-06 0 0.00032122132 0 0)
(0.00027257154 -0.00023070267 0 -0.00024470227 0 0)
(0.00058786581 -0.0013685964 0 -0.00096525428 0 0)
(0.00045971978 0.0013294212 0 -0.000726561 0 0)
(0.00022249667 0.0003530762 0 -0.00022421695 0 0)
(-0.00018867263 0.00014846067 0 0.0001690741 0 0)
(-0.00046339281 6.2880428e-06 0 0.00045122952 0 0)
(-0.00046342609 -6.2934438e-06 0 0.00045126597 0 0)
(-0.00018860921 -0.00014849441 0 0.00016901059 0 0)
(0.00022250268 -0.00035308609 0 -0.00022422242 0 0)
(0.00045972779 -0.0013294224 0 -0.00072657044 0 0)
(0.00028951314 0.0012591776 0 -0.00050015676 0 0)
(0.00017701348 0.00046716068 0 -0.0001998649 0 0)
(-0.0002335756 0.00011075625 0 0.00021657634 0 0)
(-0.00026529773 4.7729069e-05 0 0.00025642607 0 0)
(-0.00026528613 -4.7737687e-05 0 0.00025641181 0 0)
(-0.0002335767 -0.0001107627 0 0.00021658023 0 0)
(0.00017702248 -0.00046715534 0 -0.00019987443 0 0)
(0.00028951671 -0.0012591769 0 -0.00050015957 0 0)
(0.00022345962 0.0012282576 0 -0.00041392215 0 0)
(0.00012379231 0.00060499841 0 -0.00016456379 0 0)
(-8.1612784e-05 0.00027871852 0 6.7180715e-05 0 0)
(-0.00022639361 6.5168127e-05 0 0.00022170865 0 0)
(-0.00022638907 -6.5177281e-05 0 0.00022170514 0 0)
(-8.1618792e-05 -0.00027869944 0 6.718562e-05 0 0)
(0.00012380127 -0.00060500028 0 -0.00016457244 0 0)
(0.00022345966 -0.001228251 0 -0.00041392214 0 0)
(0.00015098517 0.0011972718 0 -0.00032729845 0 0)
(9.6517922e-05 0.00065584215 0 -0.00014710513 0 0)
(-6.3498825e-05 0.00032057061 0 4.7818215e-05 0 0)
(-0.00017110456 8.5116584e-05 0 0.00016865799 0 0)
(-0.00017107553 -8.5133616e-05 0 0.0001686287 0 0)
(-6.3483891e-05 -0.00032058336 0 4.7803191e-05 0 0)
(9.653057e-05 -0.00065583292 0 -0.00014711761 0 0)
(0.00015099299 -0.0011972686 0 -0.00032730615 0 0)
(0.00010822903 0.001179702 0 -0.00027602298 0 0)
(6.850736e-05 0.0007072782 0 -0.00012772959 0 0)
(-4.1643309e-05 0.00036323793 0 2.3588092e-05 0 0)
(-0.00012072116 0.00010475923 0 0.00011901324 0 0)
(-0.00012077061 -0.00010474898 0 0.00011906277 0 0)
(-4.1639687e-05 -0.00036322444 0 2.3585288e-05 0 0)
(6.8516236e-05 -0.00070728418 0 -0.00012773987 0 0)
(0.00010823173 -0.0011796918 0 -0.00027602495 0 0)
(7.2225515e-05 0.0011662642 0 -0.0002346559 0 0)
(4.956942e-05 0.00073913498 0 -0.00011489359 0 0)
(-2.6067337e-05 0.0003986678 0 5.5637292e-06 0 0)
(-8.2151268e-05 0.00012081345 0 8.0500816e-05 0 0)
(-8.2057578e-05 -0.00012085508 0 8.0407343e-05 0 0)
(-2.6047656e-05 -0.00039869212 0 5.5428159e-06 0 0)
(4.9585363e-05 -0.00073911817 0 -0.00011490806 0 0)
(7.2233231e-05 -0.0011662561 0 -0.00023466382 0 0)
(4.7580165e-05 0.0011576707 0 -0.000206794 0 0)
(3.5343163e-05 0.00076197539 0 -0.00010515268 0 0)
(-1.5900117e-05 0.00042513204 0 -6.7448539e-06 0 0)
(-5.494535e-05 0.00013275626 0 5.3078151e-05 0 0)
(-5.5066875e-05 -0.00013271354 0 5.3199401e-05 0 0)
(-1.590049e-05 -0.00042510984 0 -6.7431298e-06 0 0)
(3.5345162e-05 -0.00076198473 0 -0.00010515661 0 0)
(4.7583708e-05 -0.0011576568 0 -0.00020679633 0 0)
(3.0134416e-05 0.0011519374 0 -0.00018742923 0 0)
(2.4345563e-05 0.00077882821 0 -9.7295651e-05 0 0)
(-9.4945402e-06 0.00044402651 0 -1.4857437e-05 0 0)
(-3.6165265e-05 0.00014134912 0 3.4007346e-05 0 0)
(-3.599659e-05 -0.00014142613 0 3.3838941e-05 0 0)
(-9.4775137e-06 -0.00044405413 0 -1.4876092e-05 0 0)
(2.436306e-05 -0.00077880494 0 -9.7311489e-05 0 0)
(3.0142074e-05 -0.0011519252 0 -0.00018743721 0 0)
(1.9128427e-05 0.0011484829 0 -0.00017528502 0 0)
(1.6345011e-05 0.00079050468 0 -9.1424056e-05 0 0)
(-5.555952e-06 0.00045706972 0 -2.0077266e-05 0 0)
(-2.3592762e-05 0.00014736666 0 2.1165388e-05 0 0)
(-2.3784947e-05 -0.00014729078 0 2.1357276e-05 0 0)
(-5.5590342e-06 -0.00045704647 0 -2.0072742e-05 0 0)
(1.6343702e-05 -0.00079050951 0 -9.1424334e-05 0 0)
(1.9128108e-05 -0.0011484652 0 -0.00017528332 0 0)
(1.1855354e-05 0.0011462936 0 -0.00016734001 0 0)
(1.0752062e-05 0.00079828617 0 -8.7235699e-05 0 0)
(-3.1551149e-06 0.00046597237 0 -2.3395066e-05 0 0)
(-1.5215586e-05 0.0001515016 0 1.2565656e-05 0 0)
(-1.5011143e-05 -0.00015160136 0 1.2361242e-05 0 0)
(-3.144085e-06 -0.0004659983 0 -2.340762e-05 0 0)
(1.0762722e-05 -0.00079826785 0 -8.7244896e-05 0 0)
(1.1861895e-05 -0.0011462789 0 -0.00016734673 0 0)
(7.2176256e-06 0.0011449479 0 -0.00016231144 0 0)
(6.9165309e-06 0.00080339719 0 -8.4308195e-05 0 0)
(-1.7256851e-06 0.00047191597 0 -2.5461985e-05 0 0)
(-9.4592078e-06 0.00015442482 0 6.644211e-06 0 0)
(-9.6612663e-06 -0.00015434237 0 6.8461662e-06 0 0)
(-1.7302653e-06 -0.00047189796 0 -2.5456201e-05 0 0)
(6.9129975e-06 -0.00080339767 0 -8.4305797e-05 0 0)
(7.2164066e-06 -0.0011449294 0 -0.00016230902 0 0)
(4.2884309e-06 0.0011441294 0 -0.00015915924 0 0)
(4.3609738e-06 0.00080665509 0 -8.2330908e-05 0 0)
(-8.9690095e-07 0.00047581167 0 -2.6717895e-05 0 0)
(-5.9873204e-06 0.00015624991 0 3.0549285e-06 0 0)
(-5.7937901e-06 -0.00015635139 0 2.8612697e-06 0 0)
(-8.9202006e-07 -0.0004758332 0 -2.6723953e-05 0 0)
(4.3659592e-06 -0.00080664067 0 -8.2334745e-05 0 0)
(4.2907654e-06 -0.001144113 0 -0.00015916155 0 0)
(2.479777e-06 0.0011436434 0 -0.00015722957 0 0)
(2.6998908e-06 0.00080868968 0 -8.1028177e-05 0 0)
(-4.2608045e-07 0.0004783432 0 -2.7471198e-05 0 0)
(-3.5070921e-06 0.00015757336 0 4.9551297e-07 0 0)
(-3.685091e-06 -0.0001575008 0 6.7356537e-07 0 0)
(-4.3111066e-07 -0.00047833296 0 -2.7465359e-05 0 0)
(2.6947198e-06 -0.00080868796 0 -8.1023677e-05 0 0)
(2.4777706e-06 -0.0011436255 0 -0.00015722664 0 0)
(1.3799005e-06 0.0011433609 0 -0.00015606493 0 0)
(1.6232075e-06 0.00080994898 0 -8.0172602e-05 0 0)
(-1.7569806e-07 0.0004799252 0 -2.7901002e-05 0 0)
(-2.209931e-06 0.00015829767 0 -8.5386928e-07 0 0)
(-2.0801457e-06 -0.00015837408 0 -9.8365121e-07 0 0)
(-1.7531655e-07 -0.0004799417 0 -2.7902167e-05 0 0)
(1.6239017e-06 -0.00080993843 0 -8.0172525e-05 0 0)
(1.379757e-06 -0.0011433446 0 -0.0001560646 0 0)
(7.3697139e-07 0.0011432062 0 -0.00015539239 0 0)
(9.6077619e-07 0.00081069098 0 -7.9640292e-05 0 0)
(-4.4004446e-08 0.00048093287 0 -2.8146565e-05 0 0)
(-1.1297545e-06 0.00015889482 0 -1.9680279e-06 0 0)
(-1.2378683e-06 -0.00015885489 0 -1.85997e-06 0 0)
(-4.872083e-08 -0.00048092974 0 -2.8141427e-05 0 0)
(9.553186e-07 -0.00081068798 0 -7.963513e-05 0 0)
(7.3452948e-07 -0.0011431897 0 -0.0001553893 0 0)
(3.6113001e-07 0.0011431228 0 -0.00015500305 0 0)
(5.3660694e-07 0.00081114045 0 -7.9293673e-05 0 0)
(1.3883059e-08 0.00048152223 0 -2.8272835e-05 0 0)
(-6.3578536e-07 0.00015918571 0 -2.4835193e-06 0 0)
(-5.4007688e-07 -0.00015924871 0 -2.5796337e-06 0 0)
(1.1763943e-08 -0.0004815343 0 -2.8271179e-05 0 0)
(5.3475481e-07 -0.00081113298 0 -7.9291374e-05 0 0)
(3.5969314e-07 -0.0011431075 0 -0.00015500134 0 0)
(1.5957682e-07 0.001143085 0 -0.00015479913 0 0)
(2.9641687e-07 0.00081138043 0 -7.909569e-05 0 0)
(3.8549971e-08 0.00048189364 0 -2.8339006e-05 0 0)
(-2.1472957e-07 0.00015942923 0 -2.9176581e-06 0 0)
(-3.0249668e-07 -0.00015939742 0 -2.8294077e-06 0 0)
(3.4474573e-08 -0.00048189537 0 -2.8334792e-05 0 0)
(2.9154078e-07 -0.00081137671 0 -7.909087e-05 0 0)
(1.5719803e-07 -0.0011430701 0 -0.00015479633 0 0)
(4.6432766e-08 0.0011430689 0 -0.00015468652 0 0)
(1.4024003e-07 0.00081152478 0 -7.8963496e-05 0 0)
(4.230035e-08 0.00048208801 0 -2.8365894e-05 0 0)
(-1.9407576e-07 0.00015945528 0 -2.9439773e-06 0 0)
(-1.1001596e-07 -0.00015951537 0 -3.0288545e-06 0 0)
(3.9178453e-08 -0.0004820967 0 -2.836302e-05 0 0)
(1.372399e-07 -0.0008115193 0 -7.8960269e-05 0 0)
(4.4557656e-08 -0.0011430548 0 -0.00015468436 0 0)
(-3.9924042e-09 0.0011430683 0 -0.00015463965 0 0)
(6.5826861e-08 0.00081158464 0 -7.8900364e-05 0 0)
(3.9359518e-08 0.00048221125 0 -2.8376069e-05 0 0)
(3.4349756e-08 0.00015959039 0 -3.1778175e-06 0 0)
(-1.9243078e-08 -0.00015957354 0 -3.1239222e-06 0 0)
(3.5855895e-08 -0.00048221545 0 -2.8372589e-05 0 0)
(6.1766628e-08 -0.00081158054 0 -7.8896241e-05 0 0)
(-6.0601768e-09 -0.001143055 0 -0.0001546373 0 0)
(-2.9849288e-08 0.0011430747 0 -0.00015461671 0 0)
(1.1843119e-08 0.00081162196 0 -7.885219e-05 0 0)
(3.3202887e-08 0.00048226136 0 -2.8376366e-05 0 0)
(-3.0899821e-09 0.0001595734 0 -3.141884e-06 0 0)
(1.7721311e-08 -0.00015959939 0 -3.16285e-06 0 0)
(2.9887207e-08 -0.00048226779 0 -2.837318e-05 0 0)
(8.4509651e-09 -0.00081161758 0 -7.884869e-05 0 0)
(-3.1697646e-08 -0.001143062 0 -0.0001546146 0 0)
(-3.7031773e-08 0.0011430807 0 -0.00015461302 0 0)
(-4.3613626e-09 0.0008116298 0 -7.8837571e-05 0 0)
(2.6226445e-08 0.00048229514 0 -2.837251e-05 0 0)
(3.2274779e-08 0.00015959533 0 -3.1783388e-06 0 0)
(2.7262837e-08 -0.00015960478 0 -3.1733874e-06 0 0)
(2.3013207e-08 -0.00048230022 0 -2.8369384e-05 0 0)
(-7.803513e-09 -0.00081162573 0 -7.8834018e-05 0 0)
(-3.8845235e-08 -0.0011430687 0 -0.00015461102 0 0)
(-3.579194e-08 0.0011430889 0 -0.00015461658 0 0)
(-2.4718169e-08 0.00081163612 0 -7.8817317e-05 0 0)
(2.2076119e-08 0.00048230061 0 -2.8369422e-05 0 0)
(4.855387e-08 0.00015960868 0 -3.1952849e-06 0 0)
(4.239388e-08 -0.00015961581 0 -3.1891557e-06 0 0)
(1.8850383e-08 -0.00048230575 0 -2.836627e-05 0 0)
(-2.79387e-08 -0.00081163221 0 -7.8814033e-05 0 0)
(-3.753806e-08 -0.0011430774 0 -0.0001546146 0 0)
(-3.1955027e-08 0.0011430951 0 -0.00015462297 0 0)
(-2.0357622e-08 0.000811633 0 -7.8820837e-05 0 0)
(1.4708933e-08 0.00048230511 0 -2.8362002e-05 0 0)
(3.9514908e-08 0.00015959906 0 -3.1862268e-06 0 0)
(4.0430767e-08 -0.00015961181 0 -3.1871988e-06 0 0)
(1.155179e-08 -0.00048230986 0 -2.8358949e-05 0 0)
(-2.381126e-08 -0.00081162906 0 -7.8817241e-05 0 0)
(-3.3686714e-08 -0.0011430842 0 -0.00015462111 0 0)
(-2.7437306e-08 0.0011431001 0 -0.00015462838 0 0)
(-2.3481942e-08 0.00081162509 0 -7.881761e-05 0 0)
(1.333372e-08 0.000482299 0 -2.8360212e-05 0 0)
(3.7051792e-08 0.00015960205 0 -3.1838178e-06 0 0)
(3.6467993e-08 -0.00015961162 0 -3.1833158e-06 0 0)
(1.0183218e-08 -0.00048230336 0 -2.8357103e-05 0 0)
(-2.6641046e-08 -0.00081162149 0 -7.8814417e-05 0 0)
(-2.8866451e-08 -0.00114309 0 -0.00015462678 0 0)
(-2.2765146e-08 0.0011431052 0 -0.00015463478 0 0)
(-1.9281897e-08 0.00081161983 0 -7.8820226e-05 0 0)
(1.0795845e-08 0.00048229357 0 -2.835736e-05 0 0)
(3.93703e-08 0.00015959881 0 -3.1860606e-06 0 0)
(3.6555959e-08 -0.00015960773 0 -3.1832522e-06 0 0)
(7.4678219e-09 -0.00048229752 0 -2.83541e-05 0 0)
(-2.2614254e-08 -0.0008116166 0 -7.8816764e-05 0 0)
(-2.4466805e-08 -0.0011430954 0 -0.00015463298 0 0)
(-1.9992605e-08 0.0011431087 0 -0.00015463777 0 0)
(-1.9930071e-08 0.00081161884 0 -7.8819542e-05 0 0)
(5.3399425e-09 0.00048228152 0 -2.8351044e-05 0 0)
(2.7689884e-08 0.00015959482 0 -3.1742457e-06 0 0)
(2.8213961e-08 -0.00015960417 0 -3.17484e-06 0 0)
(2.5576108e-09 -0.00048228599 0 -2.8348304e-05 0 0)
(-2.3093993e-08 -0.00081161548 0 -7.8816338e-05 0 0)
(-2.1463809e-08 -0.0011430997 0 -0.00015463616 0 0)
(-1.6118209e-08 0.0011431129 0 -0.00015464281 0 0)
(-1.5260818e-08 0.00081161208 0 -7.8822981e-05 0 0)
(7.0429303e-09 0.00048227893 0 -2.8352676e-05 0 0)
(3.4631022e-08 0.00015959483 0 -3.1811474e-06 0 0)
(3.1149151e-08 -0.00015960208 0 -3.1776684e-06 0 0)
(3.7274828e-09 -0.00048228215 0 -2.8349416e-05 0 0)
(-1.8553583e-08 -0.00081160909 0 -7.8819574e-05 0 0)
(-1.7753602e-08 -0.0011431044 0 -0.0001546411 0 0)
(-1.4408847e-08 0.0011431158 0 -0.00015464436 0 0)
(-1.6062071e-08 0.00081161119 0 -7.8822323e-05 0 0)
(5.0510216e-09 0.00048227053 0 -2.8350035e-05 0 0)
(2.3241796e-08 0.00015958956 0 -3.1696263e-06 0 0)
(2.2394182e-08 -0.00015959755 0 -3.1688208e-06 0 0)
(1.9512802e-09 -0.00048227411 0 -2.8346972e-05 0 0)
(-1.9233588e-08 -0.00081160832 0 -7.8819098e-05 0 0)
(-1.5912649e-08 -0.0011431079 0 -0.00015464275 0 0)
(-1.2181156e-08 0.0011431191 0 -0.00015464741 0 0)
(-1.2203068e-08 0.00081160614 0 -7.882529e-05 0 0)
(5.7439448e-09 0.00048226755 0 -2.8350685e-05 0 0)
(2.6962912e-08 0.00015958927 0 -3.1732966e-06 0 0)
(2.558221e-08 -0.00015959614 0 -3.1719487e-06 0 0)
(2.6384557e-09 -0.00048227055 0 -2.8347613e-05 0 0)
(-1.5432367e-08 -0.00081160356 0 -7.882196e-05 0 0)
(-1.3775491e-08 -0.0011431117 0 -0.00015464576 0 0)
(-1.0767239e-08 0.0011431216 0 -0.00015464848 0 0)
(-1.2786638e-08 0.00081160498 0 -7.8825019e-05 0 0)
(4.4191954e-09 0.00048226041 0 -2.8348922e-05 0 0)
(2.0672295e-08 0.0001595853 0 -3.1669496e-06 0 0)
(1.9391982e-08 -0.00015959212 0 -3.1656945e-06 0 0)
(1.379543e-09 -0.00048226348 0 -2.8345916e-05 0 0)
(-1.5870391e-08 -0.00081160259 0 -7.8821876e-05 0 0)
(-1.22364e-08 -0.0011431149 0 -0.00015464694 0 0)
(-9.9468563e-09 0.0011431242 0 -0.00015464996 0 0)
(-1.0320172e-08 0.00081160174 0 -7.8826804e-05 0 0)
(4.5419765e-09 0.00048225716 0 -2.8349088e-05 0 0)
(1.9845161e-08 0.00015958332 0 -3.1660507e-06 0 0)
(1.9096178e-08 -0.00015958958 0 -3.1653432e-06 0 0)
(1.6288462e-09 -0.00048225991 0 -2.8346194e-05 0 0)
(-1.3379906e-08 -0.00081159958 0 -7.8823654e-05 0 0)
(-1.146185e-08 -0.001143118 0 -0.0001546484 0 0)
(-8.6145761e-09 0.0011431265 0 -0.00015465086 0 0)
(-1.0480356e-08 0.00081160022 0 -7.8827039e-05 0 0)
(4.0124111e-09 0.00048225175 0 -2.834826e-05 0 0)
(1.743811e-08 0.00015958112 0 -3.1636528e-06 0 0)
(1.5861084e-08 -0.00015958662 0 -3.1620847e-06 0 0)
(1.1740999e-09 -0.00048225444 0 -2.8345452e-05 0 0)
(-1.3374338e-08 -0.00081159828 0 -7.8824087e-05 0 0)
(-1.0011627e-08 -0.0011431209 0 -0.00015464941 0 0)
(-8.5976001e-09 0.0011431287 0 -0.00015465146 0 0)
(-9.1418247e-09 0.0008115982 0 -7.8827814e-05 0 0)
(3.7593144e-09 0.00048224863 0 -2.8348092e-05 0 0)
(1.7454974e-08 0.00015958007 0 -3.1636176e-06 0 0)
(1.6619043e-08 -0.00015958549 0 -3.1628208e-06 0 0)
(1.1082412e-09 -0.0004822511 0 -2.8345453e-05 0 0)
(-1.1925838e-08 -0.00081159643 0 -7.8824952e-05 0 0)
(-9.9824406e-09 -0.0011431236 0 -0.00015465005 0 0)
(-7.4647968e-09 0.0011431308 0 -0.00015465212 0 0)
(-9.1159617e-09 0.00081159661 0 -7.8828265e-05 0 0)
(3.6519644e-09 0.00048224443 0 -2.8347766e-05 0 0)
(1.5992482e-08 0.00015957808 0 -3.1621844e-06 0 0)
(1.494112e-08 -0.00015958332 0 -3.1611399e-06 0 0)
(1.1150118e-09 -0.00048224676 0 -2.8345256e-05 0 0)
(-1.1717195e-08 -0.00081159506 0 -7.8825612e-05 0 0)
(-8.7288961e-09 -0.0011431262 0 -0.00015465081 0 0)
(-7.7232158e-09 0.0011431328 0 -0.00015465241 0 0)
(-8.3217816e-09 0.00081159516 0 -7.8828554e-05 0 0)
(3.2877811e-09 0.00048224144 0 -2.8347505e-05 0 0)
(1.5827142e-08 0.00015957679 0 -3.161972e-06 0 0)
(1.5067023e-08 -0.00015958147 0 -3.1612466e-06 0 0)
(9.6374196e-10 -0.00048224361 0 -2.8345189e-05 0 0)
(-1.0750272e-08 -0.00081159374 0 -7.8826059e-05 0 0)
(-8.9371955e-09 -0.0011431287 0 -0.00015465119 0 0)
(-6.8174135e-09 0.0011431347 0 -0.00015465283 0 0)
(-8.3940877e-09 0.00081159371 0 -7.8828924e-05 0 0)
(3.3002217e-09 0.00048223816 0 -2.8347338e-05 0 0)
(1.4916145e-08 0.00015957511 0 -3.1610987e-06 0 0)
(1.4061312e-08 -0.0001595796 0 -3.1602476e-06 0 0)
(1.1283976e-09 -0.00048224017 0 -2.8345192e-05 0 0)
(-1.0629567e-08 -0.00081159247 0 -7.8826646e-05 0 0)
(-7.9000575e-09 -0.001143131 0 -0.00015465171 0 0)
(-7.1431944e-09 0.0011431367 0 -0.00015465304 0 0)
(-7.7508528e-09 0.00081159248 0 -7.8829087e-05 0 0)
(2.9474046e-09 0.00048223513 0 -2.8347106e-05 0 0)
(1.4628251e-08 0.00015957388 0 -3.1607663e-06 0 0)
(1.3902125e-08 -0.00015957774 0 -3.1600705e-06 0 0)
(9.931567e-10 -0.00048223701 0 -2.8345158e-05 0 0)
(-9.7821377e-09 -0.00081159135 0 -7.8827001e-05 0 0)
(-8.1595373e-09 -0.0011431333 0 -0.00015465202 0 0)
(-6.3851576e-09 0.0011431384 0 -0.0001546533 0 0)
(-7.9660701e-09 0.0008115912 0 -7.8829324e-05 0 0)
(2.9619251e-09 0.00048223238 0 -2.8346957e-05 0 0)
(1.3985427e-08 0.00015957236 0 -3.1601637e-06 0 0)
(1.3291728e-08 -0.00015957609 0 -3.1594715e-06 0 0)
(1.1773975e-09 -0.0004822341 0 -2.8345196e-05 0 0)
(-9.8056613e-09 -0.00081159022 0 -7.8827453e-05 0 0)
(-7.2679967e-09 -0.0011431355 0 -0.00015465239 0 0)
(-6.738112e-09 0.0011431403 0 -0.00015465347 0 0)
(-7.3621941e-09 0.00081159009 0 -7.882946e-05 0 0)
(2.6424069e-09 0.0004822294 0 -2.8346771e-05 0 0)
(1.3657602e-08 0.00015957118 0 -3.1597934e-06 0 0)
(1.3031999e-08 -0.00015957438 0 -3.1591948e-06 0 0)
(1.0657658e-09 -0.000482231 0 -2.83452e-05 0 0)
(-8.9926638e-09 -0.00081158919 0 -7.8827787e-05 0 0)
(-7.5510263e-09 -0.0011431376 0 -0.00015465266 0 0)
(-6.056905e-09 0.001143142 0 -0.00015465365 0 0)
(-7.6548787e-09 0.00081158895 0 -7.8829621e-05 0 0)
(2.6538532e-09 0.00048222695 0 -2.8346625e-05 0 0)
(1.3158448e-08 0.00015956977 0 -3.1593348e-06 0 0)
(1.2614103e-08 -0.00015957285 0 -3.1587904e-06 0 0)
(1.243694e-09 -0.00048222839 0 -2.8345238e-05 0 0)
(-9.1063974e-09 -0.00081158816 0 -7.8828149e-05 0 0)
(-6.743743e-09 -0.0011431396 0 -0.00015465294 0 0)
(-6.4249511e-09 0.0011431438 0 -0.00015465381 0 0)
(-7.0696281e-09 0.00081158792 0 -7.8829747e-05 0 0)
(2.3626495e-09 0.00048222412 0 -2.8346473e-05 0 0)
(1.2834297e-08 0.00015956864 0 -3.15897e-06 0 0)
(1.2329843e-08 -0.00015957128 0 -3.1584901e-06 0 0)
(1.1409953e-09 -0.00048222544 0 -2.8345257e-05 0 0)
(-8.325349e-09 -0.00081158718 0 -7.882846e-05 0 0)
(-7.0478993e-09 -0.0011431416 0 -0.00015465319 0 0)
(-5.782155e-09 0.0011431454 0 -0.00015465395 0 0)
(-7.3918455e-09 0.00081158688 0 -7.8829877e-05 0 0)
(2.3814922e-09 0.00048222184 0 -2.8346339e-05 0 0)
(1.2415238e-08 0.00015956729 0 -3.1585913e-06 0 0)
(1.2004867e-08 -0.00015956985 0 -3.1581796e-06 0 0)
(1.3090909e-09 -0.00048222303 0 -2.8345289e-05 0 0)
(-8.4910696e-09 -0.00081158622 0 -7.8828767e-05 0 0)
(-6.2917495e-09 -0.0011431435 0 -0.00015465342 0 0)
(-6.1571687e-09 0.0011431472 0 -0.0001546541 0 0)
(-6.8172841e-09 0.00081158591 0 -7.8829999e-05 0 0)
(2.1131758e-09 0.00048221915 0 -2.8346211e-05 0 0)
(1.2110282e-08 0.00015956621 0 -3.1582473e-06 0 0)
(1.1723287e-08 -0.00015956839 0 -3.1578828e-06 0 0)
(1.2041246e-09 -0.00048222024 0 -2.8345308e-05 0 0)
(-7.7448254e-09 -0.00081158528 0 -7.882905e-05 0 0)
(-6.6148483e-09 -0.0011431454 0 -0.00015465364 0 0)
(-5.5340549e-09 0.0011431487 0 -0.00015465422 0 0)
(-7.1460444e-09 0.00081158494 0 -7.8830119e-05 0 0)
(2.145235e-09 0.00048221701 0 -2.8346094e-05 0 0)
(1.1739581e-08 0.00015956492 0 -3.1579165e-06 0 0)
(1.144399e-08 -0.00015956705 0 -3.1576187e-06 0 0)
(1.3605873e-09 -0.00048221799 0 -2.8345332e-05 0 0)
(-7.9447398e-09 -0.00081158438 0 -7.8829318e-05 0 0)
(-5.8937487e-09 -0.0011431471 0 -0.00015465384 0 0)
(-5.9104134e-09 0.0011431504 0 -0.00015465436 0 0)
(-6.5765593e-09 0.00081158403 0 -7.8830242e-05 0 0)
(1.8972567e-09 0.00048221444 0 -2.8345986e-05 0 0)
(1.1457073e-08 0.00015956387 0 -3.1575964e-06 0 0)
(1.1172279e-08 -0.0001595657 0 -3.1573326e-06 0 0)
(1.2486238e-09 -0.00048221534 0 -2.8345344e-05 0 0)
(-7.2325129e-09 -0.00081158348 0 -7.8829573e-05 0 0)
(-6.2326414e-09 -0.0011431489 0 -0.00015465404 0 0)
(-5.2978872e-09 0.0011431518 0 -0.00015465448 0 0)
(-6.9014075e-09 0.00081158313 0 -7.8830363e-05 0 0)
(1.9438186e-09 0.00048221241 0 -2.8345887e-05 0 0)
(1.1118336e-08 0.00015956263 0 -3.1572972e-06 0 0)
(1.0916207e-08 -0.00015956444 0 -3.1570923e-06 0 0)
(1.3920901e-09 -0.00048221323 0 -2.8345357e-05 0 0)
(-7.4573975e-09 -0.00081158262 0 -7.8829811e-05 0 0)
(-5.5380785e-09 -0.0011431505 0 -0.00015465422 0 0)
(-5.672133e-09 0.0011431535 0 -0.00015465461 0 0)
(-6.3335156e-09 0.00081158227 0 -7.8830491e-05 0 0)
(1.7143438e-09 0.00048220996 0 -2.8345797e-05 0 0)
(1.0856576e-08 0.00015956162 0 -3.1569993e-06 0 0)
(1.0654353e-08 -0.00015956316 0 -3.1568168e-06 0 0)
(1.2719087e-09 -0.00048221071 0 -2.8345361e-05 0 0)
(-6.7760763e-09 -0.00081158177 0 -7.8830041e-05 0 0)
(-5.8893827e-09 -0.0011431522 0 -0.0001546544 0 0)
(-5.0659157e-09 0.0011431549 0 -0.00015465473 0 0)
(-6.6501899e-09 0.00081158141 0 -7.8830615e-05 0 0)
(1.7743828e-09 0.00048220803 0 -2.8345714e-05 0 0)
(1.0540668e-08 0.00015956043 0 -3.1567227e-06 0 0)
(1.041097e-08 -0.000159562 0 -3.1565896e-06 0 0)
(1.4022174e-09 -0.00048220873 0 -2.8345365e-05 0 0)
(-7.0200418e-09 -0.00081158094 0 -7.8830255e-05 0 0)
(-5.2160691e-09 -0.0011431536 0 -0.00015465456 0 0)
(-5.4363032e-09 0.0011431565 0 -0.00015465486 0 0)
(-6.0824047e-09 0.0008115806 0 -7.8830749e-05 0 0)
(1.5613421e-09 0.00048220568 0 -2.834564e-05 0 0)
(1.0296423e-08 0.00015955945 0 -3.1564436e-06 0 0)
(1.0157073e-08 -0.00015956078 0 -3.1563229e-06 0 0)
(1.2742764e-09 -0.00048220632 0 -2.8345359e-05 0 0)
(-6.3656503e-09 -0.00081158013 0 -7.8830464e-05 0 0)
(-5.5766373e-09 -0.0011431553 0 -0.00015465473 0 0)
(-4.8346002e-09 0.0011431578 0 -0.00015465497 0 0)
(-6.389821e-09 0.0008115798 0 -7.8830879e-05 0 0)
(1.6327641e-09 0.00048220385 0 -2.8345572e-05 0 0)
(9.9978158e-09 0.00015955831 0 -3.156184e-06 0 0)
(9.9214658e-09 -0.00015955971 0 -3.1561039e-06 0 0)
(1.3923282e-09 -0.00048220446 0 -2.8345354e-05 0 0)
(-6.6242287e-09 -0.00081157935 0 -7.8830658e-05 0 0)
(-4.9207987e-09 -0.0011431567 0 -0.00015465487 0 0)
(-5.2005839e-09 0.0011431593 0 -0.0001546551 0 0)
(-5.8221057e-09 0.00081157903 0 -7.8831018e-05 0 0)
(1.4338738e-09 0.0004822016 0 -2.8345511e-05 0 0)
(9.7678216e-09 0.00015955736 0 -3.1559204e-06 0 0)
(9.6737751e-09 -0.00015955855 0 -3.155844e-06 0 0)
(1.2578924e-09 -0.00048220217 0 -2.8345341e-05 0 0)
(-5.992749e-09 -0.00081157857 0 -7.8830849e-05 0 0)
(-5.2879391e-09 -0.0011431582 0 -0.00015465503 0 0)
(-4.6028917e-09 0.0011431606 0 -0.00015465522 0 0)
(-6.1208124e-09 0.00081157827 0 -7.8831153e-05 0 0)
(1.51427e-09 0.00048219987 0 -2.8345455e-05 0 0)
(9.4829512e-09 0.00015955628 0 -3.1556742e-06 0 0)
(9.4437089e-09 -0.00015955756 0 -3.155631e-06 0 0)
(1.3652803e-09 -0.00048220041 0 -2.8345328e-05 0 0)
(-6.2623002e-09 -0.00081157783 0 -7.8831027e-05 0 0)
(-4.6466822e-09 -0.0011431595 0 -0.00015465516 0 0)
(-4.9646747e-09 0.0011431621 0 -0.00015465535 0 0)
(-5.5539925e-09 0.00081157754 0 -7.8831297e-05 0 0)
(1.3272217e-09 0.00048219772 0 -2.8345404e-05 0 0)
(9.2644925e-09 0.00015955536 0 -3.1554233e-06 0 0)
(9.2011949e-09 -0.00015955644 0 -3.1553768e-06 0 0)
(1.2259255e-09 -0.00048219823 0 -2.8345309e-05 0 0)
(-5.6500887e-09 -0.00081157709 0 -7.8831205e-05 0 0)
(-5.0182354e-09 -0.001143161 0 -0.00015465531 0 0)
(-4.3711378e-09 0.0011431633 0 -0.00015465546 0 0)
(-5.8453161e-09 0.00081157682 0 -7.8831435e-05 0 0)
(1.4142762e-09 0.00048219608 0 -2.8345359e-05 0 0)
(8.9909905e-09 0.00015955433 0 -3.1551882e-06 0 0)
(8.975759e-09 -0.00015955553 0 -3.1551688e-06 0 0)
(1.3245354e-09 -0.00048219658 0 -2.834529e-05 0 0)
(-5.9276541e-09 -0.00081157638 0 -7.8831371e-05 0 0)
(-4.3893113e-09 -0.0011431622 0 -0.00015465543 0 0)
(-4.7293297e-09 0.0011431647 0 -0.00015465559 0 0)
(-5.2806179e-09 0.00081157613 0 -7.8831582e-05 0 0)
(1.2369256e-09 0.00048219403 0 -2.8345316e-05 0 0)
(8.7820467e-09 0.00015955344 0 -3.1549478e-06 0 0)
(8.7380862e-09 -0.00015955445 0 -3.1549199e-06 0 0)
(1.1818594e-09 -0.0004821945 0 -2.8345267e-05 0 0)
(-5.3316283e-09 -0.00081157568 0 -7.8831537e-05 0 0)
(-4.7636461e-09 -0.0011431636 0 -0.00015465557 0 0)
(-4.1403815e-09 0.0011431658 0 -0.00015465571 0 0)
(-5.5661737e-09 0.00081157544 0 -7.8831722e-05 0 0)
(1.3286234e-09 0.00048219248 0 -2.8345278e-05 0 0)
(8.5183459e-09 0.00015955247 0 -3.1547222e-06 0 0)
(8.5170642e-09 -0.00015955362 0 -3.1547166e-06 0 0)
(1.2735763e-09 -0.00048219294 0 -2.8345244e-05 0 0)
(-5.6148894e-09 -0.00081157501 0 -7.8831692e-05 0 0)
(-4.1453374e-09 -0.0011431647 0 -0.00015465569 0 0)
(-4.4957682e-09 0.0011431671 0 -0.00015465583 0 0)
(-5.0049126e-09 0.00081157479 0 -7.8831871e-05 0 0)
(1.159104e-09 0.00048219052 0 -2.8345242e-05 0 0)
(8.3175435e-09 0.00015955161 0 -3.1544908e-06 0 0)
(8.2843851e-09 -0.00015955258 0 -3.1544731e-06 0 0)
(1.1290353e-09 -0.00048219097 0 -2.8345217e-05 0 0)
(-5.0325749e-09 -0.00081157435 0 -7.883185e-05 0 0)
(-4.5213006e-09 -0.0011431661 0 -0.00015465582 0 0)
(-3.9119298e-09 0.0011431682 0 -0.00015465594 0 0)
(-5.286329e-09 0.00081157414 0 -7.8832012e-05 0 0)
(1.2538115e-09 0.00048218906 0 -2.8345209e-05 0 0)
(8.0626445e-09 0.0001595507 0 -3.1542736e-06 0 0)
(8.0679378e-09 -0.00015955182 0 -3.1542745e-06 0 0)
(1.215571e-09 -0.0004821895 0 -2.8345191e-05 0 0)
(-5.3198071e-09 -0.00081157371 0 -7.8831997e-05 0 0)
(-3.9123357e-09 -0.0011431672 0 -0.00015465594 0 0)
(-4.2653309e-09 0.0011431695 0 -0.00015465607 0 0)
(-4.7297299e-09 0.00081157352 0 -7.883216e-05 0 0)
(1.090579e-09 0.0004821872 0 -2.8345178e-05 0 0)
(7.8691393e-09 0.00015954988 0 -3.1540504e-06 0 0)
(7.8406896e-09 -0.00015955082 0 -3.1540367e-06 0 0)
(1.0703979e-09 -0.00048218763 0 -2.8345163e-05 0 0)
(-4.7493041e-09 -0.00081157308 0 -7.8832147e-05 0 0)
(-4.2891784e-09 -0.0011431684 0 -0.00015465606 0 0)
(-3.6871042e-09 0.0011431705 0 -0.00015465618 0 0)
(-5.0085034e-09 0.00081157291 0 -7.88323e-05 0 0)
(1.1870469e-09 0.00048218582 0 -2.834515e-05 0 0)
(7.6224516e-09 0.00015954902 0 -3.153841e-06 0 0)
(7.6291777e-09 -0.00015955012 0 -3.1538432e-06 0 0)
(1.1532118e-09 -0.00048218624 0 -2.8345135e-05 0 0)
(-5.0393032e-09 -0.00081157248 0 -7.8832287e-05 0 0)
(-3.6886491e-09 -0.0011431694 0 -0.00015465617 0 0)
(-4.0392958e-09 0.0011431717 0 -0.0001546563 0 0)
(-4.4576108e-09 0.00081157232 0 -7.8832446e-05 0 0)
(1.0288759e-09 0.00048218405 0 -2.8345122e-05 0 0)
(7.4357963e-09 0.00015954823 0 -3.1536254e-06 0 0)
(7.4079262e-09 -0.00015954916 0 -3.1536117e-06 0 0)
(1.0083931e-09 -0.00048218447 0 -2.8345107e-05 0 0)
(-4.4792079e-09 -0.00081157189 0 -7.8832431e-05 0 0)
(-4.0659452e-09 -0.0011431706 0 -0.00015465629 0 0)
(-3.4671109e-09 0.0011431727 0 -0.00015465641 0 0)
(-4.7350434e-09 0.00081157174 0 -7.8832584e-05 0 0)
(1.126199e-09 0.00048218276 0 -2.8345097e-05 0 0)
(7.1970188e-09 0.00015954743 0 -3.1534234e-06 0 0)
(7.2017998e-09 -0.00015954851 0 -3.1534236e-06 0 0)
(1.0886735e-09 -0.00048218317 0 -2.8345078e-05 0 0)
(-4.7711989e-09 -0.00081157131 0 -7.8832566e-05 0 0)
(-3.4732261e-09 -0.0011431716 0 -0.0001546564 0 0)
(-3.8187881e-09 0.0011431738 0 -0.00015465653 0 0)
(-4.1906935e-09 0.00081157119 0 -7.8832728e-05 0 0)
(9.7214971e-10 0.00048218108 0 -2.8345072e-05 0 0)
(7.0170439e-09 0.00015954667 0 -3.1532151e-06 0 0)
(6.9871397e-09 -0.00015954759 0 -3.1531988e-06 0 0)
(9.4496131e-10 -0.00048218149 0 -2.8345049e-05 0 0)
(-4.2205091e-09 -0.00081157076 0 -7.8832704e-05 0 0)
(-3.8507924e-09 -0.0011431727 0 -0.00015465651 0 0)
(-3.2529834e-09 0.0011431747 0 -0.00015465663 0 0)
(-4.4678757e-09 0.00081157064 0 -7.8832862e-05 0 0)
(1.0697079e-09 0.00048217986 0 -2.8345049e-05 0 0)
(6.7860697e-09 0.00015954593 0 -3.1530204e-06 0 0)
(6.7868651e-09 -0.000159547 0 -3.1530164e-06 0 0)
(1.0236426e-09 -0.00048218026 0 -2.8345021e-05 0 0)
(-4.51405e-09 -0.00081157022 0 -7.8832834e-05 0 0)
(-3.2654657e-09 -0.0011431736 0 -0.00015465661 0 0)
(-3.604748e-09 0.0011431758 0 -0.00015465675 0 0)
(-3.9307009e-09 0.00081157012 0 -7.8833003e-05 0 0)
(9.1908008e-10 0.00048217828 0 -2.8345027e-05 0 0)
(6.6127858e-09 0.00015954521 0 -3.1528193e-06 0 0)
(6.57936e-09 -0.00015954612 0 -3.152799e-06 0 0)
(8.8158459e-10 -0.00048217867 0 -2.8344992e-05 0 0)
(-3.972069e-09 -0.0008115697 0 -7.8832967e-05 0 0)
(-3.6432908e-09 -0.0011431747 0 -0.00015465672 0 0)
(-3.045568e-09 0.0011431766 0 -0.00015465684 0 0)
(-4.2085218e-09 0.0008115696 0 -7.8833133e-05 0 0)
(1.0164759e-09 0.00048217714 0 -2.8345005e-05 0 0)
(6.3896258e-09 0.00015954452 0 -3.1526319e-06 0 0)
(6.3853713e-09 -0.00015954557 0 -3.1526228e-06 0 0)
(9.5938126e-10 -0.00048217752 0 -2.8344965e-05 0 0)
(-4.2669614e-09 -0.00081156918 0 -7.8833091e-05 0 0)
(-3.0650823e-09 -0.0011431756 0 -0.00015465682 0 0)
(-3.3979291e-09 0.0011431776 0 -0.00015465696 0 0)
(-3.6789708e-09 0.00081156911 0 -7.8833269e-05 0 0)
(8.6875968e-10 0.00048217563 0 -2.8344984e-05 0 0)
(6.2231476e-09 0.00015954383 0 -3.1524381e-06 0 0)
(6.1855224e-09 -0.00015954473 0 -3.1524131e-06 0 0)
(8.1935703e-10 -0.00048217602 0 -2.8344937e-05 0 0)
(-3.733213e-09 -0.00081156869 0 -7.883322e-05 0 0)
(-3.4432672e-09 -0.0011431766 0 -0.00015465693 0 0)