/*--------------------------------*- C++ -*----------------------------------*\
| =========                 |                                                 |
| \\      /  F ield         | OpenFOAM: The Open Source CFD Toolbox           |
|  \\    /   O peration     | Version:  5.x                                   |
|   \\  /    A nd           | Web:      www.OpenFOAM.org                      |
|    \\/     M anipulation  |                                                 |
\*---------------------------------------------------------------------------*/
FoamFile
{
    version     2.0;
    format      ascii;
    class       volVectorField;
    location    "1";
    object      U;
}
// * * * * * * * * * * * * * * * * * * * * * * * * * * * * * * * * * * * * * //

dimensions      [0 1 -1 0 0 0 0];

internalField   nonuniform List<vector> 
1920
(
(-8.3750613e-08 4.0133521e-08 0)
(-4.8396017e-07 4.5236323e-08 0)
(-7.7076812e-07 -1.0909872e-08 0)
(-3.7415188e-07 -6.4752103e-08 0)
(3.748124e-07 -6.585797e-08 0)
(7.7116427e-07 -9.9075213e-09 0)
(4.8417588e-07 4.4573586e-08 0)
(8.3680091e-08 4.0370114e-08 0)
(-1.0460997e-07 2.2973798e-07 0)
(-1.2145077e-06 4.0935082e-07 0)
(-1.8047918e-06 -4.6273564e-08 0)
(-9.0445683e-07 -5.9931941e-07 0)
(9.0602435e-07 -5.9719893e-07 0)
(1.8061433e-06 -4.778146e-08 0)
(1.2147428e-06 4.1081604e-07 0)
(1.048905e-07 2.2937347e-07 0)
(-1.9255145e-07 6.2866084e-07 0)
(-1.7577601e-06 9.6035286e-07 0)
(-2.5869926e-06 -1.456782e-07 0)
(-1.2175723e-06 -1.4235632e-06 0)
(1.2199507e-06 -1.426461e-06 0)
(2.5884354e-06 -1.4234891e-07 0)
(1.7588087e-06 9.5905308e-07 0)
(1.9234384e-07 6.2958804e-07 0)
(-2.2758827e-07 1.1521428e-06 0)
(-2.1742408e-06 1.6399396e-06 0)
(-3.0182801e-06 -2.9103394e-07 0)
(-1.4875302e-06 -2.5015613e-06 0)
(1.4900342e-06 -2.497113e-06 0)
(3.0204155e-06 -2.9352134e-07 0)
(2.174833e-06 1.6434222e-06 0)
(2.2792159e-07 1.1516997e-06 0)
(-2.7283748e-07 1.7654183e-06 0)
(-2.3332223e-06 2.4118859e-06 0)
(-3.3181476e-06 -4.8060491e-07 0)
(-1.5367206e-06 -3.697642e-06 0)
(1.539324e-06 -3.7017779e-06 0)
(3.3198103e-06 -4.7504841e-07 0)
(2.3343805e-06 2.4105698e-06 0)
(2.727225e-07 1.7671588e-06 0)
(-2.5736116e-07 2.4149808e-06 0)
(-2.4212e-06 3.2017898e-06 0)
(-3.3072936e-06 -6.6977782e-07 0)
(-1.6232324e-06 -4.9518171e-06 0)
(1.62532e-06 -4.9459126e-06 0)
(3.3090504e-06 -6.724182e-07 0)
(2.421792e-06 3.2068471e-06 0)
(2.5758132e-07 2.4147623e-06 0)
(-2.6730819e-07 3.0528839e-06 0)
(-2.2950124e-06 3.9891895e-06 0)
(-3.2521718e-06 -8.6978397e-07 0)
(-1.5005845e-06 -6.1762133e-06 0)
(1.502162e-06 -6.1807209e-06 0)
(3.2532385e-06 -8.6298293e-07 0)
(2.2956808e-06 3.9882701e-06 0)
(2.6731794e-07 3.0551775e-06 0)
(-2.2471403e-07 3.6566057e-06 0)
(-2.1586924e-06 4.724283e-06 0)
(-2.9581801e-06 -1.0474972e-06 0)
(-1.4511067e-06 -7.3416053e-06 0)
(1.4518954e-06 -7.3353201e-06 0)
(2.9588112e-06 -1.0498066e-06 0)
(2.1589971e-06 4.7300001e-06 0)
(2.247361e-07 3.6566591e-06 0)
(-2.1144098e-07 4.1975237e-06 0)
(-1.8823729e-06 5.4000426e-06 0)
(-2.6861025e-06 -1.2158984e-06 0)
(-1.2450657e-06 -8.3882035e-06 0)
(1.2450793e-06 -8.3923867e-06 0)
(2.6861792e-06 -1.2090505e-06 0)
(1.8823323e-06 5.399558e-06 0)
(2.1154175e-07 4.199926e-06 0)
(-1.6321052e-07 4.6700559e-06 0)
(-1.6389836e-06 5.9870128e-06 0)
(-2.2773394e-06 -1.3505913e-06 0)
(-1.1191337e-06 -9.3150447e-06 0)
(1.1184562e-06 -9.3093318e-06 0)
(2.2767387e-06 -1.3524078e-06 0)
(1.6389064e-06 5.9923948e-06 0)
(1.6306425e-07 4.670267e-06 0)
(-1.4008693e-07 5.0621596e-06 0)
(-1.3318786e-06 6.4907909e-06 0)
(-1.9270865e-06 -1.4688546e-06 0)
(-9.0270939e-07 -1.0090587e-05 0)
(9.0132136e-07 -1.0094047e-05 0)
(1.9262423e-06 -1.462964e-06 0)
(1.3312493e-06 6.4905513e-06 0)
(1.4022835e-07 5.0642601e-06 0)
(-9.9703504e-08 5.3805214e-06 0)
(-1.0763874e-06 6.9002437e-06 0)
(-1.5316106e-06 -1.5544525e-06 0)
(-7.547309e-07 -1.0733555e-05 0)
(7.5292381e-07 -1.072901e-05 0)
(1.5301072e-06 -1.5558645e-06 0)
(1.0759904e-06 6.9045535e-06 0)
(9.9472288e-08 5.3807281e-06 0)
(-7.6458692e-08 5.6252032e-06 0)
(-8.1551495e-07 7.2294931e-06 0)
(-1.2060544e-06 -1.6241722e-06 0)
(-5.7489767e-07 -1.1235422e-05 0)
(5.7258629e-07 -1.123807e-05 0)
(1.2045746e-06 -1.6198277e-06 0)
(8.1455355e-07 7.2292261e-06 0)
(7.6594259e-08 5.626748e-06 0)
(-4.9237624e-08 5.808938e-06 0)
(-6.0640299e-07 7.4791533e-06 0)
(-8.9700326e-07 -1.668339e-06 0)
(-4.4391237e-07 -1.1624612e-05 0)
(4.414137e-07 -1.1621442e-05 0)
(8.9499913e-07 -1.6695841e-06 0)
(6.0578401e-07 7.4820181e-06 0)
(4.8999239e-08 5.8089976e-06 0)
(-3.1303312e-08 5.937932e-06 0)
(-4.2399611e-07 7.6667647e-06 0)
(-6.5038346e-07 -1.7014318e-06 0)
(-3.1906984e-07 -1.1905899e-05 0)
(3.162453e-07 -1.1907881e-05 0)
(6.4851412e-07 -1.6988289e-06 0)
(4.2290521e-07 7.6661925e-06 0)
(3.1400795e-08 5.9388235e-06 0)
(-1.6760263e-08 6.0256693e-06 0)
(-2.8226686e-07 7.7978865e-06 0)
(-4.479445e-07 -1.7176509e-06 0)
(-2.2331502e-07 -1.2108113e-05 0)
(2.2040914e-07 -1.2106246e-05 0)
(4.4569216e-07 -1.7190363e-06 0)
(2.8148196e-07 7.7992092e-06 0)
(1.6556603e-08 6.0254659e-06 0)
(-5.5075849e-09 6.0795322e-06 0)
(-1.7635527e-07 7.8889858e-06 0)
(-2.9055324e-07 -1.7282588e-06 0)
(-1.5055229e-07 -1.2240546e-05 0)
(1.4742939e-07 -1.2242125e-05 0)
(2.8841862e-07 -1.7273572e-06 0)
(1.7522458e-07 7.8878434e-06 0)
(5.5518229e-09 6.0797589e-06 0)
(-2.3186396e-10 6.1104537e-06 0)
(-9.60012e-08 7.9458768e-06 0)
(-1.7993082e-07 -1.7294651e-06 0)
(-9.0916037e-08 -1.2326552e-05 0)
(8.774375e-08 -1.2325795e-05 0)
(1.7753966e-07 -1.7313062e-06 0)
(9.5074332e-08 7.9456885e-06 0)
(7.1117638e-11 6.1098847e-06 0)
(5.5770344e-09 6.1241952e-06 0)
(-4.7049531e-08 7.9813043e-06 0)
(-9.5135044e-08 -1.7291594e-06 0)
(-5.6799977e-08 -1.2374443e-05 0)
(5.3503704e-08 -1.2375898e-05 0)
(9.2816748e-08 -1.7298319e-06 0)
(4.5908554e-08 7.9793551e-06 0)
(-5.5850703e-09 6.1237696e-06 0)
(5.4727329e-09 6.128017e-06 0)
(-9.8007505e-09 7.999256e-06 0)
(-4.7540914e-08 -1.7245884e-06 0)
(-2.4679193e-08 -1.2400118e-05 0)
(2.1384708e-08 -1.2400263e-05 0)
(4.510472e-08 -1.7271477e-06 0)
(8.7762037e-09 7.997627e-06 0)
(-5.5976622e-09 6.1269959e-06 0)
(7.9710234e-09 6.1252925e-06 0)
(4.9063135e-09 8.0081158e-06 0)
(-9.8610078e-09 -1.7207322e-06 0)
(-1.4171648e-08 -1.2408825e-05 0)
(1.0890673e-08 -1.2410376e-05 0)
(7.5033048e-09 -1.7228292e-06 0)
(-6.01258e-09 8.0051951e-06 0)
(-8.0176651e-09 6.1242358e-06 0)
(5.4985837e-09 6.120011e-06 0)
(1.791882e-08 8.0098219e-06 0)
(2.3086249e-09 -1.7154967e-06 0)
(1.1641971e-09 -1.2409815e-05 0)
(-4.3254846e-09 -1.2410677e-05 0)
(-4.6172872e-09 -1.7189229e-06 0)
(-1.8944473e-08 8.0068584e-06 0)
(-5.5939669e-09 6.1184924e-06 0)
(6.5440233e-09 6.1135934e-06 0)
(1.6218808e-08 8.0091083e-06 0)
(1.525076e-08 -1.7117276e-06 0)
(-1.6593557e-10 -1.2405429e-05 0)
(-2.797526e-09 -1.2407202e-05 0)
(-1.7411776e-08 -1.7150679e-06 0)
(-1.7199384e-08 8.0051782e-06 0)
(-6.6087116e-09 6.1119549e-06 0)
(3.4891413e-09 6.1077945e-06 0)
(1.8707159e-08 8.0064795e-06 0)
(1.1561094e-08 -1.7078643e-06 0)
(6.9728551e-09 -1.2400274e-05 0)
(-9.6556191e-09 -1.2401692e-05 0)
(-1.3498939e-08 -1.7121521e-06 0)
(-1.9600319e-08 8.0023616e-06 0)
(-3.5548713e-09 6.1058013e-06 0)
(4.227271e-09 6.1028809e-06 0)
(1.1437328e-08 8.0042173e-06 0)
(1.4542983e-08 -1.7053962e-06 0)
(1.0861204e-09 -1.2394803e-05 0)
(-3.3869156e-09 -1.2396822e-05 0)
(-1.6239768e-08 -1.7097359e-06 0)
(-1.2179018e-08 7.9993965e-06 0)
(-4.2894675e-09 6.1007608e-06 0)
(1.3794807e-09 6.0993867e-06 0)
(1.1103452e-08 8.0021108e-06 0)
(5.9897335e-09 -1.7032211e-06 0)
(5.2815631e-09 -1.2390945e-05 0)
(-7.1610771e-09 -1.2392763e-05 0)
(-7.3227586e-09 -1.7082112e-06 0)
(-1.1738842e-08 7.9971154e-06 0)
(-1.4118846e-09 6.0970181e-06 0)
(2.3111523e-09 6.0970906e-06 0)
(3.3884445e-09 8.0010745e-06 0)
(6.6878778e-09 -1.702074e-06 0)
(-1.559907e-09 -1.2388275e-05 0)
(1.8881682e-10 -1.2390485e-05 0)
(-7.7145438e-09 -1.7070999e-06 0)
(-3.8019427e-09 7.9956222e-06 0)
(-2.3560407e-09 6.0946422e-06 0)
(-1.3386457e-10 6.0960089e-06 0)
(3.5004052e-09 8.0006811e-06 0)
(-1.9150887e-09 -1.701217e-06 0)
(2.1993769e-09 -1.2387443e-05 0)
(-3.0810437e-09 -1.2389499e-05 0)
(1.326419e-09 -1.7066365e-06 0)
(-3.8035934e-09 7.9951639e-06 0)
(1.3687319e-10 6.0934215e-06 0)
(1.0991573e-09 6.0958204e-06 0)
(-2.9880999e-09 8.0012153e-06 0)
(-5.1303346e-10 -1.7010157e-06 0)
(-4.2718072e-09 -1.2387788e-05 0)
(3.9332104e-09 -1.2390086e-05 0)
(2.367186e-10 -1.706373e-06 0)
(2.9347049e-09 7.995475e-06 0)
(-1.1202969e-09 6.093228e-06 0)
(-1.005675e-09 6.0964008e-06 0)
(-1.6090205e-09 8.0022786e-06 0)
(-7.7786382e-09 -1.7009908e-06 0)
(-1.0323914e-10 -1.2389481e-05 0)
(2.3216646e-10 -1.2391619e-05 0)
(7.939495e-09 -1.7065172e-06 0)
(1.6437606e-09 7.9966222e-06 0)
(1.0415612e-09 6.0937741e-06 0)
(4.694377e-10 6.0974885e-06 0)
(-6.7857124e-09 8.0039304e-06 0)
(-5.0621614e-09 -1.7013489e-06 0)
(-5.9781816e-09 -1.239192e-05 0)
(6.5955093e-09 -1.2394186e-05 0)
(5.480428e-09 -1.7066894e-06 0)
(7.060808e-09 7.9982573e-06 0)
(-4.6816813e-10 6.0949349e-06 0)
(-1.4190287e-09 6.0989722e-06 0)
(-4.3171605e-09 8.0058738e-06 0)
(-1.1049817e-08 -1.7017743e-06 0)
(-1.3214797e-09 -1.2395161e-05 0)
(2.3096259e-09 -1.2397243e-05 0)
(1.1844387e-08 -1.7071003e-06 0)
(4.6355628e-09 8.0004274e-06 0)
(1.4807182e-09 6.0964718e-06 0)
(2.0461859e-10 6.1006797e-06 0)
(-8.5836807e-09 8.008124e-06 0)
(-7.2910176e-09 -1.702415e-06 0)
(-6.7562395e-09 -1.2398742e-05 0)
(8.1169023e-09 -1.240087e-05 0)
(8.2463788e-09 -1.7074447e-06 0)
(9.1085985e-09 8.0028221e-06 0)
(-1.8742593e-10 6.0983163e-06 0)
(-1.5698034e-09 6.1025509e-06 0)
(-5.4314952e-09 8.0104763e-06 0)
(-1.2442808e-08 -1.7030479e-06 0)
(-1.773653e-09 -1.2402732e-05 0)
(3.3672021e-09 -1.2404652e-05 0)
(1.3680541e-08 -1.7079296e-06 0)
(5.9435166e-09 8.0055093e-06 0)
(1.6477414e-09 6.1003027e-06 0)
(1.2801479e-10 6.1044832e-06 0)
(-9.1923701e-09 8.0129633e-06 0)
(-8.0683825e-09 -1.7038044e-06 0)
(-6.9714513e-09 -1.2406795e-05 0)
(8.797163e-09 -1.2408706e-05 0)
(9.3550669e-09 -1.708314e-06 0)
(9.8674012e-09 8.0082472e-06 0)
(-1.033695e-10 6.1024125e-06 0)
(-1.5953861e-09 6.1064608e-06 0)
(-5.6929728e-09 8.0154408e-06 0)
(-1.2780989e-08 -1.7045089e-06 0)
(-1.8340679e-09 -1.2411038e-05 0)
(3.7484418e-09 -1.2412728e-05 0)
(1.4250108e-08 -1.7087902e-06 0)
(6.2995223e-09 8.0111207e-06 0)
(1.6799818e-09 6.104539e-06 0)
(1.3113767e-10 6.1084224e-06 0)
(-9.2195001e-09 8.0179684e-06 0)
(-8.117434e-09 -1.7052911e-06 0)
(-6.9364678e-09 -1.241521e-05 0)
(8.9496847e-09 -1.2416861e-05 0)
(9.5313211e-09 -1.7091657e-06 0)
(9.9477835e-09 8.0139507e-06 0)
(-1.0695088e-10 6.1066938e-06 0)
(-1.572818e-09 6.1103804e-06 0)
(-5.5806577e-09 8.0204336e-06 0)
(-1.2641051e-08 -1.7059973e-06 0)
(-1.7567003e-09 -1.2419446e-05 0)
(3.7337866e-09 -1.2420876e-05 0)
(1.4151016e-08 -1.7096118e-06 0)
(6.1940475e-09 8.0168269e-06 0)
(1.6562345e-09 6.1088091e-06 0)
(1.5919186e-10 6.1122933e-06 0)
(-9.0185953e-09 8.0229166e-06 0)
(-7.8792091e-09 -1.7067599e-06 0)
(-6.8354459e-09 -1.2423548e-05 0)
(8.8049238e-09 -1.2424927e-05 0)
(9.2515667e-09 -1.7099711e-06 0)
(9.7217671e-09 8.0196176e-06 0)
(-1.4135857e-10 6.1109098e-06 0)
(-1.5379945e-09 6.1141882e-06 0)
(-5.3460681e-09 8.0253182e-06 0)
(-1.2339977e-08 -1.7074349e-06 0)
(-1.6688414e-09 -1.2427663e-05 0)
(3.5103037e-09 -1.2428832e-05 0)
(1.3745699e-08 -1.7103922e-06 0)
(5.9011263e-09 8.0224081e-06 0)
(1.6149581e-09 6.1129514e-06 0)
(1.895003e-10 6.1160315e-06 0)
(-8.7594153e-09 8.0277306e-06 0)
(-7.570777e-09 -1.7081567e-06 0)
(-6.7481311e-09 -1.2431622e-05 0)
(8.5103266e-09 -1.2432745e-05 0)
(8.7835948e-09 -1.7107433e-06 0)
(9.3841765e-09 8.0251e-06 0)
(-1.8145587e-10 6.1149622e-06 0)
(-1.5042816e-09 6.1178565e-06 0)
(-5.0974591e-09 8.0300582e-06 0)
(-1.2018241e-08 -1.7087865e-06 0)
(-1.6134579e-09 -1.2435577e-05 0)
(3.1914259e-09 -1.2436511e-05 0)
(1.3227378e-08 -1.7111514e-06 0)
(5.5543311e-09 8.0277692e-06 0)
(1.5720725e-09 6.1169112e-06 0)
(2.1525992e-10 6.1196315e-06 0)
(-8.5068905e-09 8.0323988e-06 0)
(-7.2751637e-09 -1.7094591e-06 0)
(-6.6928409e-09 -1.2439375e-05 0)
(8.1536015e-09 -1.2440275e-05 0)
(8.2618756e-09 -1.7115043e-06 0)
(9.0245865e-09 8.0303408e-06 0)
(-2.1822441e-10 6.1188249e-06 0)
(-1.4747581e-09 6.1213918e-06 0)
(-4.8688963e-09 8.0346569e-06 0)
(-1.1720322e-08 -1.7100397e-06 0)
(-1.5905386e-09 -1.2443164e-05 0)
(2.8423429e-09 -1.2443902e-05 0)
(1.2688807e-08 -1.7119097e-06 0)
(5.2103081e-09 8.0328797e-06 0)
(1.5327174e-09 6.1206807e-06 0)
(2.3611526e-10 6.1231056e-06 0)
(-8.2760396e-09 8.0369314e-06 0)
(-7.0096167e-09 -1.7106615e-06 0)
(-6.6602888e-09 -1.2446804e-05 0)
(7.7845161e-09 -1.2447522e-05 0)
(7.7469911e-09 -1.7122712e-06 0)
(8.6782196e-09 8.0353282e-06 0)
(-2.4966749e-10 6.1225014e-06 0)
(-1.4487502e-09 6.1248078e-06 0)
(-4.6625921e-09 8.0391266e-06 0)
(-1.1447984e-08 -1.7111937e-06 0)
(-1.5843176e-09 -1.2450434e-05 0)
(2.4988491e-09 -1.2451018e-05 0)
(1.2169512e-08 -1.7126796e-06 0)
(4.8884532e-09 8.0377398e-06 0)
(1.497617e-09 6.1242699e-06 0)
(2.5360263e-10 6.1264662e-06 0)
(-8.0627294e-09 8.04134e-06 0)
(-6.7658462e-09 -1.7117667e-06 0)
(-6.6336121e-09 -1.2453924e-05 0)
(7.4297807e-09 -1.2454506e-05 0)
(7.262256e-09 -1.7130524e-06 0)
(8.3552391e-09 8.0400701e-06 0)
(-2.7631559e-10 6.1260047e-06 0)
(-1.424762e-09 6.128115e-06 0)
(-4.4705864e-09 8.0434762e-06 0)
(-1.1189087e-08 -1.7122543e-06 0)
(-1.5775291e-09 -1.2457405e-05 0)
(2.1791515e-09 -1.2457878e-05 0)
(1.1683002e-08 -1.7134655e-06 0)
(4.5920691e-09 8.0423621e-06 0)
(1.4660479e-09 6.1276929e-06 0)
(2.6932907e-10 6.1297214e-06 0)
(-7.8582717e-09 8.0456306e-06 0)
(-6.5298612e-09 -1.7127824e-06 0)
(-6.5978548e-09 -1.2460754e-05 0)
(7.1022248e-09 -1.2461241e-05 0)
(6.8135143e-09 -1.7138488e-06 0)
(8.0555608e-09 8.0445819e-06 0)
(-2.9931294e-10 6.1293489e-06 0)
(-1.4015319e-09 6.1313186e-06 0)
(-4.2841111e-09 8.0477088e-06 0)
(-1.0930642e-08 -1.7132301e-06 0)
(-1.5571806e-09 -1.2464093e-05 0)
(1.8909223e-09 -1.2464497e-05 0)
(1.1230935e-08 -1.7142653e-06 0)
(4.3184536e-09 8.0467628e-06 0)
(1.4370337e-09 6.130963e-06 0)
(2.8444216e-10 6.132874e-06 0)
(-7.6551372e-09 8.0498033e-06 0)
(-6.2899552e-09 -1.7137183e-06 0)
(-6.5431538e-09 -1.2467309e-05 0)
(6.806358e-09 -1.2467739e-05 0)
(6.3990184e-09 -1.7146561e-06 0)
(7.7756339e-09 8.04888e-06 0)
(-3.1973697e-10 6.1325461e-06 0)
(-1.3782652e-09 6.1344197e-06 0)
(-4.0967222e-09 8.0518219e-06 0)
(-1.0663357e-08 -1.7141312e-06 0)
(-1.5157809e-09 -1.2470515e-05 0)
(1.6355742e-09 -1.2470881e-05 0)
(1.0810049e-08 -1.7150728e-06 0)
(4.0632742e-09 8.0509578e-06 0)
(1.4097387e-09 6.1340913e-06 0)
(2.9960775e-10 6.1359237e-06 0)
(-7.4484689e-09 8.0538538e-06 0)
(-6.0388291e-09 -1.7145844e-06 0)
(-6.464809e-09 -1.2473602e-05 0)
(6.5418286e-09 -1.2474005e-05 0)
(6.0141369e-09 -1.7154671e-06 0)
(7.5112729e-09 8.0529796e-06 0)
(-3.3842596e-10 6.135606e-06 0)
(-1.3545718e-09 6.1374167e-06 0)
(-3.9047242e-09 8.0558097e-06 0)
(-1.0382299e-08 -1.7149675e-06 0)
(-1.4505766e-09 -1.2476678e-05 0)
(1.410964e-09 -1.2477034e-05 0)
(1.0415429e-08 -1.71588e-06 0)
(3.8222902e-09 8.0549614e-06 0)
(1.3835467e-09 6.137086e-06 0)
(3.151342e-10 6.1388678e-06 0)
(-7.2359189e-09 8.0577755e-06 0)
(-5.7732708e-09 -1.7153904e-06 0)
(-6.3621476e-09 -1.2479642e-05 0)
(6.3056489e-09 -1.248004e-05 0)
(5.6535494e-09 -1.7162732e-06 0)
(7.2587213e-09 8.0568936e-06 0)
(-3.5598189e-10 6.1385359e-06 0)
(-1.3303375e-09 6.1403066e-06 0)
(-3.7066501e-09 8.059665e-06 0)
(-1.0086085e-08 -1.7157483e-06 0)
(-1.362189e-09 -1.2482591e-05 0)
(1.2131548e-09 -1.2482955e-05 0)
(1.0042038e-08 -1.7166787e-06 0)
(3.5919395e-09 8.0587853e-06 0)
(1.3580398e-09 6.1399535e-06 0)
(3.3110415e-10 6.1417033e-06 0)
(-7.0169965e-09 8.0615609e-06 0)
(-5.4930836e-09 -1.716145e-06 0)
(-6.2371582e-09 -1.2485433e-05 0)
(6.0936452e-09 -1.2485843e-05 0)
(5.3122539e-09 -1.7170666e-06 0)
(7.0149754e-09 8.0606326e-06 0)
(-3.7281676e-10 6.1413411e-06 0)
(-1.3056122e-09 6.1430862e-06 0)
(-3.5025621e-09 8.0633806e-06 0)
(-9.7757619e-09 -1.7164814e-06 0)
(-1.2532978e-09 -1.2488258e-05 0)
(1.037565e-09 -1.2488643e-05 0)
(9.6854007e-09 -1.717461e-06 0)
(3.369472e-09 8.0624388e-06 0)
(1.3329551e-09 6.1426984e-06 0)
(3.4747359e-10 6.1444268e-06 0)
(-6.7924072e-09 8.0652033e-06 0)
(-5.1999917e-09 -1.7168555e-06 0)
(-6.0933122e-09 -1.2490981e-05 0)
(5.9013829e-09 -1.2491412e-05 0)
(4.9860042e-09 -1.7178399e-06 0)
(6.7778204e-09 8.0642051e-06 0)
(-3.8919957e-10 6.1440256e-06 0)
(-1.2805303e-09 6.1457526e-06 0)
(-3.2934491e-09 8.06695e-06 0)
(-9.4538144e-09 -1.7171735e-06 0)
(-1.1276069e-09 -1.2493683e-05 0)
(8.796836e-10 -1.2494097e-05 0)
(9.3418782e-09 -1.7182204e-06 0)
(3.1529118e-09 8.0659293e-06 0)
(1.3081452e-09 6.1453241e-06 0)
(3.6413646e-10 6.147036e-06 0)
(-6.5635329e-09 8.0686968e-06 0)
(-4.8967682e-09 -1.7175278e-06 0)
(-5.9346941e-09 -1.2496287e-05 0)
(5.7247168e-09 -1.2496746e-05 0)
(4.6714583e-09 -1.7185873e-06 0)
(6.5457558e-09 8.0676175e-06 0)
(-4.0529386e-10 6.1465923e-06 0)
(-1.2552612e-09 6.1483035e-06 0)
(-3.0807871e-09 8.0703682e-06 0)
(-9.1234252e-09 -1.7178298e-06 0)
(-9.8912688e-10 -1.2498868e-05 0)
(7.354754e-10 -1.2499314e-05 0)
(9.0087323e-09 -1.7189515e-06 0)
(2.9409563e-09 8.0692627e-06 0)
(1.2835466e-09 6.1478332e-06 0)
(3.8096285e-10 6.1495289e-06 0)
(-6.3320689e-09 8.0720372e-06 0)
(-4.5866207e-09 -1.7181665e-06 0)
(-5.7654282e-09 -1.2501355e-05 0)
(5.5600794e-09 -1.2501842e-05 0)
(4.3661705e-09 -1.7193042e-06 0)
(6.3178834e-09 8.0708751e-06 0)
(-4.2118639e-10 6.1490436e-06 0)
(-1.2299813e-09 6.1507376e-06 0)
(-2.8662439e-09 8.0736319e-06 0)
(-8.7879784e-09 -1.7184543e-06 0)
(-8.4172872e-10 -1.2503817e-05 0)
(6.0156906e-10 -1.2504294e-05 0)
(8.6840685e-09 -1.7196506e-06 0)
(2.7328564e-09 8.0724436e-06 0)
(1.259155e-09 6.1502278e-06 0)
(3.9782017e-10 6.1519047e-06 0)
(-6.0997896e-09 8.0752219e-06 0)
(-4.2727969e-09 -1.7187751e-06 0)
(-5.5893421e-09 -1.2506187e-05 0)
(5.4045881e-09 -1.2506703e-05 0)
(4.0685e-09 -1.7199873e-06 0)
(6.0937861e-09 8.073982e-06 0)
(-4.3690922e-10 6.1513813e-06 0)
(-1.2048587e-09 6.1530545e-06 0)
(-2.6514952e-09 8.0767392e-06 0)
(-8.4507524e-09 -1.7190502e-06 0)
(-6.8889854e-10 -1.250853e-05 0)
(4.7530067e-10 -1.2509037e-05 0)
(8.3667197e-09 -1.7203148e-06 0)
(2.5282945e-09 8.0754758e-06 0)
(1.2350061e-09 6.1525096e-06 0)
(4.1458405e-10 6.1541635e-06 0)
(-5.8684063e-09 8.0782499e-06 0)
(-3.9583507e-09 -1.7193562e-06 0)
(-5.4097974e-09 -1.2510786e-05 0)
(5.2560401e-09 -1.2511327e-05 0)
(3.7774778e-09 -1.7206345e-06 0)
(5.873409e-09 8.0769418e-06 0)
(-4.5245701e-10 6.1536073e-06 0)
(-1.1800458e-09 6.1552547e-06 0)
(-2.4381164e-09 8.0796898e-06 0)
(-8.1147476e-09 -1.7196195e-06 0)
(-5.3362983e-10 -1.2513013e-05 0)
(3.5467081e-10 -1.2513545e-05 0)
(8.0561052e-09 -1.7209426e-06 0)
(2.3272714e-09 8.0783627e-06 0)
(1.2111609e-09 6.1546807e-06 0)
(4.3114318e-10 6.156306e-06 0)
(-5.6394871e-09 8.0811217e-06 0)
(-3.6460191e-09 -1.7199117e-06 0)
(-5.2296306e-09 -1.2515156e-05 0)
(5.1128425e-09 -1.2515717e-05 0)
(3.4926616e-09 -1.7212447e-06 0)
(5.6569533e-09 8.0797577e-06 0)
(-4.6780029e-10 6.1557235e-06 0)
(-1.1556763e-09 6.1573393e-06 0)
(-2.2275245e-09 8.0824847e-06 0)
(-7.7826019e-09 -1.7201638e-06 0)
(-3.7840116e-10 -1.2517268e-05 0)
(2.3825651e-10 -1.2517821e-05 0)
(7.7520859e-09 -1.7215334e-06 0)
(2.1300064e-09 8.0811074e-06 0)
(1.1876934e-09 6.1567429e-06 0)
(4.4740127e-10 6.1583338e-06 0)
(-5.4144162e-09 8.0838388e-06 0)
(-3.3381683e-09 -1.7204429e-06 0)
(-5.0511583e-09 -1.2519301e-05 0)
(4.9739135e-09 -1.2519877e-05 0)
(3.2139953e-09 -1.7218177e-06 0)
(5.4447845e-09 8.0824329e-06 0)
(-4.8289586e-10 6.1577318e-06 0)
(-1.1318648e-09 6.1593104e-06 0)
(-2.0209515e-09 8.0851263e-06 0)
(-7.4565613e-09 -1.7206843e-06 0)
(-2.2520193e-10 -1.2521301e-05 0)
(1.2510619e-10 -1.2521868e-05 0)
(7.4548316e-09 -1.7220871e-06 0)
(1.9368532e-09 8.0837129e-06 0)
(1.1646826e-09 6.1586983e-06 0)
(4.6327719e-10 6.1602493e-06 0)
(-5.1943783e-09 8.086404e-06 0)
(-3.0367832e-09 -1.7209506e-06 0)
(-4.8762181e-09 -1.2523224e-05 0)
(4.8385763e-09 -1.2523811e-05 0)
(2.9416845e-09 -1.7223537e-06 0)
(5.2373568e-09 8.0849705e-06 0)
(-4.976946e-10 6.1596346e-06 0)
(-1.1087064e-09 6.1611704e-06 0)
(-1.8194358e-09 8.0876177e-06 0)
(-7.1384836e-09 -1.7211817e-06 0)
(-7.5582132e-11 -1.2525115e-05 0)
(1.4635689e-11 -1.2525692e-05 0)
(7.1647073e-09 -1.7226043e-06 0)
(1.7482326e-09 8.0861826e-06 0)
(1.1422056e-09 6.1605494e-06 0)
(4.787045e-10 6.1620552e-06 0)
(-4.9803571e-09 8.088821e-06 0)
(-2.74348e-09 -1.7214357e-06 0)
(-4.7062244e-09 -1.2526933e-05 0)
(4.70646e-09 -1.2527524e-05 0)
(2.6760928e-09 -1.7228537e-06 0)
(5.0351545e-09 8.0873738e-06 0)
(-5.1214688e-10 6.1614343e-06 0)
(-1.0862784e-09 6.1629225e-06 0)
(-1.6238261e-09 8.089963e-06 0)
(-6.8298592e-09 -1.7216566e-06 0)
(6.9289869e-11 -1.2528717e-05 0)
(-9.3465692e-11 -1.2529298e-05 0)
(6.8821801e-09 -1.7230862e-06 0)
(1.5645811e-09 8.0885198e-06 0)
(1.1203334e-09 6.1622986e-06 0)
(4.9363047e-10 6.1637548e-06 0)
(-4.7731428e-09 8.0910941e-06 0)
(-2.4595322e-09 -1.7218984e-06 0)
(-4.5422271e-09 -1.2530432e-05 0)
(4.5774134e-09 -1.2531023e-05 0)
(2.4176596e-09 -1.7233187e-06 0)
(4.8386485e-09 8.0896462e-06 0)
(-5.2620656e-10 6.1631336e-06 0)
(-1.064641e-09 6.16457e-06 0)
(-1.4347909e-09 8.0921668e-06 0)
(-6.5318406e-09 -1.7221093e-06 0)
(2.085692e-10 -1.2532112e-05 0)
(-1.9931442e-10 -1.2532693e-05 0)
(6.6077487e-09 -1.7235339e-06 0)
(1.3863132e-09 8.090728e-06 0)
(1.0991278e-09 6.1639489e-06 0)
(5.0801513e-10 6.1653517e-06 0)
(-4.5733442e-09 8.0932283e-06 0)
(-2.1859024e-09 -1.7223393e-06 0)
(-4.3849692e-09 -1.2533728e-05 0)
(4.4514342e-09 -1.2534314e-05 0)
(2.1668375e-09 -1.7237504e-06 0)
(4.648265e-09 8.0917915e-06 0)
(-5.3983327e-10 6.1647356e-06 0)
(-1.0438389e-09 6.1661167e-06 0)
(-1.2528317e-09 8.0942343e-06 0)
(-6.2452769e-09 -1.7225403e-06 0)
(3.4168091e-10 -1.2535309e-05 0)
(-3.0289674e-10 -1.2535883e-05 0)
(6.3418904e-09 -1.7239491e-06 0)
(1.2137958e-09 8.0928111e-06 0)
(1.0786403e-09 6.1655034e-06 0)
(5.2183006e-10 6.1668497e-06 0)
(-4.3814038e-09 8.0952289e-06 0)
(-1.9232757e-09 -1.7227587e-06 0)
(-4.2349378e-09 -1.2536827e-05 0)
(4.328613e-09 -1.2537405e-05 0)
(1.9240485e-09 -1.7241503e-06 0)
(4.464366e-09 8.0938137e-06 0)
(-5.52994e-10 6.1662433e-06 0)
(-1.0239027e-09 6.1675665e-06 0)
(-1.0782987e-09 8.0961709e-06 0)
(-5.9707477e-09 -1.7229499e-06 0)
(4.6827239e-10 -1.2538312e-05 0)
(-4.0411873e-10 -1.2538878e-05 0)
(6.0850261e-09 -1.7243335e-06 0)
(1.0473321e-09 8.0947731e-06 0)
(1.0589111e-09 6.1669653e-06 0)
(5.3505731e-10 6.168253e-06 0)
(-4.1976141e-09 8.0971015e-06 0)
(-1.6720933e-09 -1.7231568e-06 0)
(-4.0924099e-09 -1.2539739e-05 0)
(4.2090908e-09 -1.2540304e-05 0)
(1.6896536e-09 -1.7245202e-06 0)
(4.2872376e-09 8.0957167e-06 0)
(-5.6566349e-10 6.1676602e-06 0)
(-1.0048501e-09 6.1689237e-06 0)
(-9.1140601e-10 8.0979823e-06 0)
(-5.7085973e-09 -1.7233385e-06 0)
(5.8817177e-10 -1.2541131e-05 0)
(-5.02844e-10 -1.2541684e-05 0)
(5.8374966e-09 -1.7246888e-06 0)
(8.8715288e-10 8.0966182e-06 0)
(1.0399691e-09 6.168338e-06 0)
(5.4768825e-10 6.1695656e-06 0)
(-4.0221345e-09 8.0988519e-06 0)
(-1.432585e-09 -1.7235341e-06 0)
(-3.9574916e-09 -1.2542468e-05 0)
(4.0930271e-09 -1.2543018e-05 0)
(1.4639346e-09 -1.7248618e-06 0)
(4.1170848e-09 8.0975049e-06 0)
(-5.7782447e-10 6.1689896e-06 0)
(-9.8668758e-10 6.1701923e-06 0)
(-7.5224856e-10 8.0996744e-06 0)
(-5.4589667e-09 -1.7237063e-06 0)
(7.0135256e-10 -1.2543772e-05 0)
(-5.9892126e-10 -1.254431e-05 0)
(5.5995503e-09 -1.7250169e-06 0)
(7.3341327e-10 8.0983507e-06 0)
(1.0218327e-09 6.169625e-06 0)
(5.5972251e-10 6.1707918e-06 0)
(-3.8550079e-09 8.1004858e-06 0)
(-1.2047994e-09 -1.723891e-06 0)
(-3.830152e-09 -1.2545024e-05 0)
(3.9805781e-09 -1.2545556e-05 0)
(1.2470847e-09 -1.7251769e-06 0)
(3.954032e-09 8.0991827e-06 0)
(-5.8946731e-10 6.1702352e-06 0)
(-9.6941174e-10 6.1713766e-06 0)
(-6.0081743e-10 8.1012529e-06 0)
(-5.2218245e-09 -1.7240539e-06 0)
(8.0790334e-10 -1.2546244e-05 0)
(-6.9220422e-10 -1.2546763e-05 0)
(5.3713382e-09 -1.7253194e-06 0)
(5.8619401e-10 8.099975e-06 0)
(1.0045103e-09 6.17083e-06 0)
(5.7116681e-10 6.1719357e-06 0)
(-3.6961768e-09 8.1020092e-06 0)
(-9.8863232e-10 -1.7242279e-06 0)
(-3.710252e-09 -1.2547414e-05 0)
(3.8718809e-09 -1.2547927e-05 0)
(1.0392055e-09 -1.7254674e-06 0)
(3.7981254e-09 8.1007546e-06 0)
(-6.005894e-10 6.1714004e-06 0)
(-9.5301066e-10 6.1724808e-06 0)
(-4.5701523e-10 8.1027238e-06 0)
(-4.9969943e-09 -1.7243816e-06 0)
(9.0800218e-10 -1.2548553e-05 0)
(-7.8256474e-10 -1.2549053e-05 0)
(5.1529142e-09 -1.725598e-06 0)
(4.4550507e-10 8.1014957e-06 0)
(9.8800116e-10 6.1719564e-06 0)
(5.8203394e-10 6.1730016e-06 0)
(-3.5454989e-09 8.1034277e-06 0)
(-7.8385294e-10 -1.7245452e-06 0)
(-3.5975686e-09 -1.2549646e-05 0)
(3.7670441e-09 -1.2550138e-05 0)
(8.4030881e-10 -1.7257348e-06 0)
(3.6493392e-09 8.1022249e-06 0)
(-6.1119454e-10 6.172489e-06 0)
(-9.3746529e-10 6.173509e-06 0)
(-3.2067025e-10 8.1040926e-06 0)
(-4.7841806e-09 -1.72469e-06 0)
(1.001895e-09 -1.2550708e-05 0)
(-8.6990152e-10 -1.2551187e-05 0)
(4.9442399e-09 -1.7258546e-06 0)
(3.1129118e-10 8.1029171e-06 0)
(9.7229695e-10 6.173008e-06 0)
(5.9234181e-10 6.1739935e-06 0)
(-3.4027611e-09 8.104747e-06 0)
(-5.9012692e-10 -1.7248435e-06 0)
(-3.4918161e-09 -1.2551727e-05 0)
(3.6661415e-09 -1.2552196e-05 0)
(6.5032176e-10 -1.7259808e-06 0)
(3.5075819e-09 8.1035983e-06 0)
(-6.2129218e-10 6.1735045e-06 0)
(-9.2275055e-10 6.1744651e-06 0)
(-1.9154961e-10 8.1053648e-06 0)
(-4.5829917e-09 -1.7249796e-06 0)
(1.0898777e-09 -1.2552716e-05 0)
(-9.5414506e-10 -1.2553174e-05 0)
(4.7451913e-09 -1.7260905e-06 0)
(1.8343876e-10 8.1042438e-06 0)
(9.5738227e-10 6.1739881e-06 0)
(6.0211253e-10 6.1749152e-06 0)
(-3.2676931e-09 8.1059725e-06 0)
(-4.0703772e-10 -1.7251233e-06 0)
(-3.3926629e-09 -1.2553664e-05 0)
(3.5692101e-09 -1.2554111e-05 0)
(4.6909381e-10 -1.726207e-06 0)
(3.3727045e-09 8.1048791e-06 0)
(-6.3089664e-10 6.1744503e-06 0)
(-9.0883665e-10 6.1753531e-06 0)
(-6.9371338e-11 8.1065459e-06 0)
(-4.3929606e-09 -1.7252509e-06 0)
(1.1722806e-09 -1.2554584e-05 0)
(-1.0352597e-09 -1.255502e-05 0)
(4.5555677e-09 -1.7263074e-06 0)
(6.1782946e-11 8.1054801e-06 0)
(9.4323606e-10 6.1749004e-06 0)
(6.1137155e-10 6.1757707e-06 0)
(-3.1399791e-09 8.1071094e-06 0)
(-2.3410503e-10 -1.7253851e-06 0)
(-3.2997464e-09 -1.2555466e-05 0)
(3.4762497e-09 -1.255589e-05 0)
(2.964053e-10 -1.7264147e-06 0)
(3.2445078e-09 8.1060717e-06 0)
(-6.4002629e-10 6.17533e-06 0)
(-8.9569e-10 6.1761766e-06 0)
(4.6184936e-11 8.1076409e-06 0)
(-4.2135624e-09 -1.7255046e-06 0)
(1.2494568e-09 -1.2556319e-05 0)
(-1.1132439e-09 -1.2556733e-05 0)
(4.375101e-09 -1.7265065e-06 0)
(-5.3884828e-11 8.1066303e-06 0)
(9.2983246e-10 6.1757481e-06 0)
(6.201469e-10 6.1765635e-06 0)
(-3.0192682e-09 8.1081626e-06 0)
(-7.0801157e-11 -1.7256296e-06 0)
(-3.2126845e-09 -1.2557137e-05 0)
(3.387224e-09 -1.2557539e-05 0)
(1.319763e-10 -1.7266053e-06 0)
(3.122751e-09 8.1071802e-06 0)
(-6.4870292e-10 6.1761467e-06 0)
(-8.8327416e-10 6.1769392e-06 0)
(1.5546838e-10 8.1086545e-06 0)
(-4.0442309e-09 -1.7257412e-06 0)
(1.3217718e-09 -1.2557928e-05 0)
(-1.1881289e-09 -1.255832e-05 0)
(4.2034658e-09 -1.7266891e-06 0)
(-1.6380963e-10 8.1076986e-06 0)
(9.1714175e-10 6.1765344e-06 0)
(6.2846859e-10 6.177297e-06 0)
(-2.9051841e-09 8.1091368e-06 0)
(8.3434863e-11 -1.7258574e-06 0)
(-3.1310852e-09 -1.2558687e-05 0)
(3.3020633e-09 -1.2559067e-05 0)
(-2.4523948e-11 -1.72678e-06 0)
(3.0071589e-09 8.1082087e-06 0)
(-6.5695101e-10 6.1769036e-06 0)
(-8.7155068e-10 6.1776442e-06 0)
(2.5884875e-10 8.1095913e-06 0)
(-3.8843711e-09 -1.7259613e-06 0)
(1.3895954e-09 -1.2559418e-05 0)
(-1.2599765e-09 -1.2559789e-05 0)
(4.0402885e-09 -1.7268564e-06 0)
(-2.6826618e-10 8.1086888e-06 0)
(9.051313e-10 6.1772626e-06 0)
(6.3636798e-10 6.1779745e-06 0)
(-2.7973331e-09 8.1100364e-06 0)
(2.2918589e-10 -1.7260691e-06 0)
(-3.0545546e-09 -1.2560119e-05 0)
(3.2206677e-09 -1.2560478e-05 0)
(-1.7346834e-10 -1.72694e-06 0)
(2.8974287e-09 8.1091612e-06 0)
(-6.6479712e-10 6.1776038e-06 0)
(-8.6047976e-10 6.1782946e-06 0)
(3.5670909e-10 8.1104557e-06 0)
(-3.7333718e-09 -1.7261656e-06 0)
(1.4532957e-09 -1.2560795e-05 0)
(-1.3288759e-09 -1.2561145e-05 0)
(3.885157e-09 -1.7270095e-06 0)
(-3.6755237e-10 8.1096048e-06 0)
(8.9376618e-10 6.1779354e-06 0)
(6.4387727e-10 6.1785989e-06 0)
(-2.6953111e-09 8.1108656e-06 0)
(3.6704548e-10 -1.7262652e-06 0)
(-2.9827028e-09 -1.2561442e-05 0)
(3.1429106e-09 -1.2561779e-05 0)
(-3.1526327e-10 -1.7270862e-06 0)
(2.793237e-09 8.1100413e-06 0)
(-6.7226942e-10 6.1782501e-06 0)
(-8.5002094e-10 6.1788934e-06 0)
(4.4943974e-10 8.1112514e-06 0)
(-3.5906141e-09 -1.7263546e-06 0)
(1.5132339e-09 -1.2562064e-05 0)
(-1.3949408e-09 -1.2562394e-05 0)
(3.7376295e-09 -1.7271493e-06 0)
(-4.619834e-10 8.1104503e-06 0)
(8.8300996e-10 6.1785557e-06 0)
(6.5102908e-10 6.1791732e-06 0)
(-2.5987092e-09 8.1116281e-06 0)
(4.9761104e-10 -1.7264463e-06 0)
(-2.915148e-09 -1.2562659e-05 0)
(3.0686429e-09 -1.2562977e-05 0)
(-4.5034067e-10 -1.7272196e-06 0)
(2.6942457e-09 8.1108525e-06 0)
(-6.7939707e-10 6.1788452e-06 0)
(-8.4013357e-10 6.1794434e-06 0)
(5.3743314e-10 8.1119823e-06 0)
(-3.45548e-09 -1.726529e-06 0)
(1.5697612e-09 -1.256323e-05 0)
(-1.4583054e-09 -1.2563541e-05 0)
(3.5972418e-09 -1.7272768e-06 0)
(-5.5188645e-10 8.1112285e-06 0)
(8.7282527e-10 6.179126e-06 0)
(6.5785612e-10 6.1796998e-06 0)
(-2.5071191e-09 8.1123274e-06 0)
(6.2147542e-10 -1.7266132e-06 0)
(-2.8515208e-09 -1.2563777e-05 0)
(2.9976967e-09 -1.2564076e-05 0)
(-5.7915069e-10 -1.727341e-06 0)
(2.6001069e-09 8.111598e-06 0)
(-6.8620995e-10 6.1793915e-06 0)
(-8.3077718e-10 6.179947e-06 0)
(6.2107951e-10 8.1126517e-06 0)
(-3.3273587e-09 -1.7266893e-06 0)
(1.6232155e-09 -1.25643e-05 0)
(-1.5191212e-09 -1.2564593e-05 0)
(3.4635156e-09 -1.7273926e-06 0)
(-6.3759595e-10 8.1119426e-06 0)
(8.6317433e-10 6.1796488e-06 0)
(6.6439084e-10 6.1801812e-06 0)
(-2.4201368e-09 8.1129668e-06 0)
(7.3922239e-10 -1.7267662e-06 0)
(-2.7914664e-09 -1.25648e-05 0)
(2.929889e-09 -1.2565081e-05 0)
(-7.0215501e-10 -1.7274511e-06 0)
(2.5104678e-09 8.112281e-06 0)
(-6.9273814e-10 6.1798915e-06 0)
(-8.2191201e-10 6.1804065e-06 0)