/*--------------------------------*- C++ -*----------------------------------*\
| =========                 |                                                 |
| \\      /  F ield         | OpenFOAM: The Open Source CFD Toolbox           |
|  \\    /   O peration     | Version:  5.x                                   |
|   \\  /    A nd           | Web:      www.OpenFOAM.org                      |
|    \\/     M anipulation  |                                                 |
\*---------------------------------------------------------------------------*/
FoamFile
{
    version     2.0;
    format      ascii;
    class       volVectorField;
    location    "1";
    object      U_0;
}
// * * * * * * * * * * * * * * * * * * * * * * * * * * * * * * * * * * * * * //

dimensions      [0 1 -1 0 0 0 0];

internalField   nonuniform List<vector> 
1920
(
(-0.0003766175 -0.0034628987 0)
(-0.00068707145 -0.0039251595 0)
(-0.00037365642 -0.0038939621 0)
(-0.0001173209 -0.0038904966 0)
(0.00011732115 -0.0038904966 0)
(0.0003736565 -0.0038939621 0)
(0.00068707131 -0.0039251595 0)
(0.00037661741 -0.0034628985 0)
(-0.00052012783 -0.0032076355 0)
(-0.0011328639 -0.0040335691 0)
(-0.00072318222 -0.0040869377 0)
(-0.00024536835 -0.004089363 0)
(0.00024536876 -0.004089363 0)
(0.00072318237 -0.0040869376 0)
(0.0011328638 -0.0040335689 0)
(0.00052012778 -0.0032076351 0)
(-0.00043561907 -0.0027956783 0)
(-0.0011200769 -0.0040309572 0)
(-0.00080804184 -0.0042920104 0)
(-0.00029029454 -0.0043526217 0)
(0.00029029502 -0.0043526216 0)
(0.00080804205 -0.0042920105 0)
(0.0011200769 -0.004030957 0)
(0.00043561911 -0.002795678 0)
(-0.0003228973 -0.0023988736 0)
(-0.00094902393 -0.0039611834 0)
(-0.00075242343 -0.004473742 0)
(-0.00028271581 -0.0046283761 0)
(0.00028271632 -0.0046283762 0)
(0.00075242366 -0.004473742 0)
(0.000949024 -0.0039611834 0)
(0.00032289736 -0.0023988735 0)
(-0.00022970875 -0.0020936903 0)
(-0.00074543576 -0.0038717698 0)
(-0.00063719945 -0.0046139844 0)
(-0.00024798148 -0.0048749159 0)
(0.00024798193 -0.0048749158 0)
(0.00063719971 -0.0046139848 0)
(0.00074543589 -0.0038717698 0)
(0.00022970884 -0.0020936904 0)
(-0.00015896015 -0.0018740291 0)
(-0.00055828039 -0.0037862853 0)
(-0.00050768771 -0.0047151043 0)
(-0.00020349653 -0.0050774105 0)
(0.0002034969 -0.0050774108 0)
(0.00050768796 -0.0047151044 0)
(0.0005582806 -0.0037862855 0)
(0.00015896025 -0.0018740291 0)
(-0.00010736134 -0.001718599 0)
(-0.00040397533 -0.0037131489 0)
(-0.00038734862 -0.0047853952 0)
(-0.00015905882 -0.0052354444 0)
(0.00015905907 -0.0052354442 0)
(0.00038734888 -0.0047853957 0)
(0.00040397559 -0.0037131489 0)
(0.00010736147 -0.0017185991 0)
(-7.0999827e-05 -0.0016103763 0)
(-0.00028476651 -0.0036545085 0)
(-0.00028574448 -0.0048329939 0)
(-0.00011993281 -0.0053543151 0)
(0.00011993297 -0.0053543154 0)
(0.00028574472 -0.0048329939 0)
(0.00028476682 -0.0036545088 0)
(7.0999959e-05 -0.0016103763 0)
(-4.6166648e-05 -0.0015364981 0)
(-0.00019638477 -0.0036096639 0)
(-0.00020525193 -0.0048645174 0)
(-8.7708033e-05 -0.0054410968 0)
(8.7708103e-05 -0.0054410966 0)
(0.00020525214 -0.0048645177 0)
(0.0001963851 -0.0036096639 0)
(4.6166793e-05 -0.0015364982 0)
(-2.9522664e-05 -0.001487 0)
(-0.00013294802 -0.0035766073 0)
(-0.00014403335 -0.004884977 0)
(-6.263859e-05 -0.0055028786 0)
(6.2638595e-05 -0.0055028788 0)
(0.00014403355 -0.0048849769 0)
(0.00013294835 -0.0035766075 0)
(2.9522814e-05 -0.0014870001 0)
(-1.8594984e-05 -0.0014543877 0)
(-8.841557e-05 -0.0035529379 0)
(-9.9096506e-05 -0.004898011 0)
(-4.371242e-05 -0.005545913 0)
(4.3712379e-05 -0.0055459127 0)
(9.9096667e-05 -0.0048980112 0)
(8.8415902e-05 -0.0035529378 0)
(1.8595125e-05 -0.0014543878 0)
(-1.1500236e-05 -0.0014332365 0)
(-5.7851113e-05 -0.0035363993 0)
(-6.6874527e-05 -0.0049061583 0)
(-2.9954819e-05 -0.005575307 0)
(2.995474e-05 -0.0055753073 0)
(6.6874676e-05 -0.0049061581 0)
(5.7851406e-05 -0.0035363995 0)
(1.1500382e-05 -0.0014332365 0)
(-6.9874613e-06 -0.0014197405 0)
(-3.7195469e-05 -0.0035250896 0)
(-4.4355841e-05 -0.0049111515 0)
(-2.0114119e-05 -0.005595018 0)
(2.0114029e-05 -0.0055950177 0)
(4.4355941e-05 -0.0049111516 0)
(3.7195751e-05 -0.0035250895 0)
(6.9875791e-06 -0.0014197406 0)
(-4.1451382e-06 -0.0014112766 0)
(-2.3507651e-05 -0.0035175106 0)
(-2.887436e-05 -0.0049141421 0)
(-1.3287185e-05 -0.0056080001 0)
(1.3287077e-05 -0.0056080003 0)
(2.8874457e-05 -0.0049141419 0)
(2.3507872e-05 -0.0035175107 0)
(4.1452616e-06 -0.0014112766 0)
(-2.3969581e-06 -0.0014060715 0)
(-1.455768e-05 -0.0035125301 0)
(-1.8462169e-05 -0.0049158861 0)
(-8.5996882e-06 -0.0056163953 0)
(8.5995901e-06 -0.0056163952 0)
(1.8462217e-05 -0.0049158862 0)
(1.4557888e-05 -0.00351253 0)
(2.3970449e-06 -0.0014060715 0)
(-1.3345663e-06 -0.0014029412 0)
(-8.8202147e-06 -0.003509323 0)
(-1.1557639e-05 -0.0049168675 0)
(-5.4682292e-06 -0.0056217201 0)
(5.4681271e-06 -0.0056217202 0)
(1.1557694e-05 -0.0049168673 0)
(8.8203593e-06 -0.003509323 0)
(1.3346607e-06 -0.0014029412 0)
(-7.0813372e-07 -0.0014011106 0)
(-5.1957195e-06 -0.003507301 0)
(-7.0753215e-06 -0.0049173945 0)
(-3.395983e-06 -0.0056250255 0)
(3.3959005e-06 -0.0056250254 0)
(7.0753367e-06 -0.0049173946 0)
(5.1958574e-06 -0.0035073009 0)
(7.0819238e-07 -0.0014011106 0)
(-3.4639938e-07 -0.0014000772 0)
(-2.9572129e-06 -0.0035060573 0)
(-4.2101634e-06 -0.0049176566 0)
(-2.0602387e-06 -0.005627027 0)
(2.0601626e-06 -0.0056270271 0)
(4.2101932e-06 -0.0049176566 0)
(2.9573011e-06 -0.0035060574 0)
(3.4646666e-07 -0.0014000772 0)
(-1.4658889e-07 -0.0013995227 0)
(-1.6024049e-06 -0.0035053131 0)
(-2.4208266e-06 -0.0049177713 0)
(-1.2101337e-06 -0.0056282024 0)
(1.2100816e-06 -0.0056282024 0)
(2.420834e-06 -0.0049177714 0)
(1.6024931e-06 -0.0035053131 0)
(1.4662832e-07 -0.0013995228 0)
(-4.1283019e-08 -0.0013992471 0)
(-8.0698108e-07 -0.0035048841 0)
(-1.3264544e-06 -0.0049178064 0)
(-6.8406392e-07 -0.0056288661 0)
(6.8402676e-07 -0.0056288662 0)
(1.3264812e-06 -0.0049178065 0)
(8.0704042e-07 -0.0035048843 0)
(4.132989e-08 -0.0013992472 0)
(9.3033486e-09 -0.0013991286 0)
(-3.5553171e-07 -0.0035046479 0)
(-6.7733292e-07 -0.0049178033 0)
(-3.6481846e-07 -0.0056292202 0)
(3.6480729e-07 -0.0056292203 0)
(6.7735561e-07 -0.0049178035 0)
(3.5559478e-07 -0.003504648 0)
(-9.2733813e-09 -0.0013991287 0)
(3.0096993e-08 -0.0013990936 0)
(-1.1271969e-07 -0.0035045274 0)
(-3.0473557e-07 -0.0049177832 0)
(-1.7852135e-07 -0.0056293933 0)
(1.7853252e-07 -0.0056293934 0)
(3.0477865e-07 -0.0049177834 0)
(1.127749e-07 -0.0035045276 0)
(-3.0062736e-08 -0.0013990937 0)
(3.500991e-08 -0.0013990997 0)
(8.7596426e-09 -0.0035044728 0)
(-1.0232466e-07 -0.0049177589 0)
(-7.2779627e-08 -0.0056294643 0)
(7.2816182e-08 -0.0056294644 0)
(1.023791e-07 -0.0049177591 0)
(-8.7009313e-09 -0.0035044731 0)
(-3.4982062e-08 -0.0013990998 0)
(3.2841602e-08 -0.0013991229 0)
(6.0521463e-08 -0.0035044548 0)
(9.7995586e-10 -0.0049177352 0)
(-1.7791982e-08 -0.0056294813 0)
(1.7856492e-08 -0.0056294814 0)
(-9.0765308e-10 -0.0049177355 0)
(-6.0454383e-08 -0.0035044551 0)
(-3.2813533e-08 -0.001399123 0)
(2.734928e-08 -0.0013991508 0)
(7.6351012e-08 -0.0035044549 0)
(4.560814e-08 -0.0049177153 0)
(1.001379e-08 -0.0056294721 0)
(-9.9263425e-09 -0.0056294723 0)
(-4.5514187e-08 -0.0049177156 0)
(-7.6283365e-08 -0.0035044552 0)
(-2.731967e-08 -0.0013991509 0)
(2.1774524e-08 -0.001399177 0)
(7.2837628e-08 -0.0035044633 0)
(6.0802502e-08 -0.0049176992 0)
(1.9727928e-08 -0.0056294526 0)
(-1.9611198e-08 -0.0056294527 0)
(-6.069524e-08 -0.0049176996 0)
(-7.2751955e-08 -0.0035044636 0)
(-2.174848e-08 -0.0013991771 0)
(1.6134829e-08 -0.0013991992 0)
(6.2957941e-08 -0.0035044741 0)
(5.8610915e-08 -0.0049176871 0)
(2.3062558e-08 -0.0056294308 0)
(-2.2926301e-08 -0.005629431 0)
(-5.8478049e-08 -0.0049176874 0)
(-6.2875676e-08 -0.0035044744 0)
(-1.6102523e-08 -0.0013991994 0)
(1.2023151e-08 -0.0013992168 0)
(4.9640959e-08 -0.0035044847 0)
(5.163082e-08 -0.0049176781 0)
(2.0040722e-08 -0.0056294109 0)
(-1.9877333e-08 -0.005629411 0)
(-5.1489655e-08 -0.0049176784 0)
(-4.9537047e-08 -0.003504485 0)
(-1.1997097e-08 -0.001399217 0)
(8.2233908e-09 -0.0013992301 0)
(3.8487908e-08 -0.0035044938 0)
(4.0599941e-08 -0.0049176716 0)
(1.7863417e-08 -0.0056293941 0)
(-1.7685204e-08 -0.0056293942 0)
(-4.0434304e-08 -0.0049176719 0)
(-3.8390987e-08 -0.0035044942 0)
(-8.1892254e-09 -0.0013992303 0)
(5.9755412e-09 -0.0013992398 0)
(2.7625446e-08 -0.0035045011 0)
(3.2068673e-08 -0.004917667 0)
(1.2928759e-08 -0.0056293809 0)
(-1.2727781e-08 -0.005629381 0)
(-3.1899484e-08 -0.0049176674 0)
(-2.7507653e-08 -0.0035045015 0)
(-5.9489208e-09 -0.00139924 0)
(3.7458118e-09 -0.0013992467 0)
(2.0394202e-08 -0.0035045067 0)
(2.2742483e-08 -0.0049176639 0)
(1.0870742e-08 -0.0056293709 0)
(-1.0660263e-08 -0.005629371 0)
(-2.2553119e-08 -0.0049176642 0)
(-2.0285828e-08 -0.003504507 0)
(-3.7112494e-09 -0.0013992468 0)
(2.7762558e-09 -0.0013992514 0)
(1.3527816e-08 -0.0035045107 0)
(1.724863e-08 -0.0049176617 0)
(6.8284925e-09 -0.0056293636 0)
(-6.6011716e-09 -0.0056293637 0)
(-1.7059711e-08 -0.004917662 0)
(-1.3401894e-08 -0.003504511 0)
(-2.7493014e-09 -0.0013992515 0)
(1.5123931e-09 -0.0013992545 0)
(9.8592303e-09 -0.0035045135 0)
(1.111942e-08 -0.0049176602 0)
(5.9484125e-09 -0.0056293583 0)
(-5.717081e-09 -0.0056293585 0)
(-1.091619e-08 -0.0049176605 0)
(-9.7439623e-09 -0.0035045139 0)
(-1.4787893e-09 -0.0013992547 0)
(1.2547109e-09 -0.0013992566 0)
(5.9007903e-09 -0.0035045155 0)
(8.5049923e-09 -0.0049176592 0)
(3.0485525e-09 -0.0056293547 0)
(-2.8069291e-09 -0.0056293548 0)
(-8.3054506e-09 -0.0049176594 0)
(-5.7723439e-09 -0.0035045158 0)
(-1.2279325e-09 -0.0013992567 0)
(5.0126123e-10 -0.0013992579 0)
(4.4767562e-09 -0.0035045167 0)
(4.7617198e-09 -0.0049176584 0)
(3.138338e-09 -0.0056293521 0)
(-2.8979305e-09 -0.0056293522 0)
(-4.5541154e-09 -0.0049176587 0)
(-4.3593003e-09 -0.003504517 0)
(-4.6953539e-10 -0.001399258 0)
(5.930185e-10 -0.0013992587 0)
(2.202267e-09 -0.0035045175 0)
(3.9894815e-09 -0.0049176579 0)
(1.038779e-09 -0.0056293504 0)
(-7.9442722e-10 -0.0056293505 0)
(-3.7881016e-09 -0.0049176582 0)
(-2.0760082e-09 -0.0035045177 0)
(-5.6690702e-10 -0.0013992588 0)
(8.3643104e-11 -0.0013992591 0)
(1.9775204e-09 -0.0035045179 0)
(1.6481568e-09 -0.0049176576 0)
(1.7141107e-09 -0.0056293493 0)
(-1.475616e-09 -0.0056293493 0)
(-1.4444644e-09 -0.0049176578 0)
(-1.8620306e-09 -0.0035045181 0)
(-5.4232107e-11 -0.0013992592 0)
(3.2979495e-10 -0.0013992593 0)
(5.6327457e-10 -0.0035045181 0)
(1.8687918e-09 -0.0049176573 0)
(7.4519982e-11 -0.0056293485 0)
(1.6234364e-10 -0.0056293486 0)
(-1.6732102e-09 -0.0049176575 0)
(-4.4276091e-10 -0.0035045183 0)
(-3.0468964e-10 -0.0013992594 0)
(-7.1402491e-11 -0.0013992594 0)
(9.1107214e-10 -0.0035045181 0)
(2.5330835e-10 -0.004917657 0)
(1.0505193e-09 -0.005629348 0)
(-8.2328617e-10 -0.005629348 0)
(-6.0149702e-11 -0.0049176572 0)
(-8.0080083e-10 -0.0035045183 0)
(9.8445351e-11 -0.0013992595 0)
(2.3525332e-10 -0.0013992594 0)
(-1.0069637e-10 -0.003504518 0)
(9.4993424e-10 -0.0049176568 0)
(-3.5072483e-10 -0.0056293476 0)
(5.7199598e-10 -0.0056293477 0)
(-7.6611769e-10 -0.004917657 0)
(2.1308311e-10 -0.0035045182 0)
(-2.1131208e-10 -0.0013992594 0)
(-1.2045378e-10 -0.0013992593 0)
(4.9357844e-10 -0.0035045179 0)
(-3.2001365e-10 -0.0049176566 0)
(7.5982784e-10 -0.0056293473 0)
(-5.5081356e-10 -0.0056293474 0)
(4.9795347e-10 -0.0049176568 0)
(-3.9072292e-10 -0.003504518 0)
(1.453238e-10 -0.0013992594 0)
(2.0542559e-10 -0.0013992592 0)
(-3.4191394e-10 -0.0035045177 0)
(5.8073684e-10 -0.0049176564 0)
(-5.239311e-10 -0.0056293471 0)
(7.2409937e-10 -0.0056293472 0)
(-4.1266437e-10 -0.0049176566 0)
(4.4489475e-10 -0.0035045178 0)
(-1.8264655e-10 -0.0013992593 0)
(-1.3112977e-10 -0.0013992591 0)
(3.4528895e-10 -0.0035045175 0)
(-5.3334685e-10 -0.0049176562 0)
(6.3616256e-10 -0.005629347 0)
(-4.496314e-10 -0.005629347 0)
(6.9340635e-10 -0.0049176564 0)
(-2.5098772e-10 -0.0035045176 0)
(1.5415005e-10 -0.0013992592 0)
(1.9734826e-10 -0.001399259 0)
(-4.1570906e-10 -0.0035045173 0)
(4.4220408e-10 -0.0049176561 0)
(-5.8877186e-10 -0.0056293468 0)
(7.6502674e-10 -0.0056293469 0)
(-2.9182509e-10 -0.0049176562 0)
(5.0896526e-10 -0.0035045174 0)
(-1.7561449e-10 -0.001399259 0)
(-1.3000468e-10 -0.0013992589 0)
(2.9807872e-10 -0.0035045171 0)
(-6.0205061e-10 -0.0049176559 0)
(5.8129629e-10 -0.0056293467 0)
(-4.1885509e-10 -0.0056293468 0)
(7.4346454e-10 -0.004917656 0)
(-2.125251e-10 -0.0035045172 0)
(1.5153786e-10 -0.0013992589 0)
(1.9501536e-10 -0.0013992588 0)
(-4.3022204e-10 -0.0035045169 0)
(3.9181915e-10 -0.0049176557 0)
(-6.1055715e-10 -0.0056293466 0)
(7.625748e-10 -0.0056293467 0)
(-2.5925318e-10 -0.0049176558 0)
(5.1420496e-10 -0.003504517 0)
(-1.7414316e-10 -0.0013992588 0)
(-1.2635999e-10 -0.0013992587 0)
(2.8391944e-10 -0.0035045167 0)
(-6.182114e-10 -0.0049176555 0)
(5.5255041e-10 -0.0056293465 0)
(-4.1350993e-10 -0.0056293465 0)
(7.4179762e-10 -0.0049176556 0)
(-2.0655939e-10 -0.0035045167 0)
(1.4675149e-10 -0.0013992587 0)
(1.9328437e-10 -0.0013992586 0)
(-4.270888e-10 -0.0035045165 0)
(3.7135082e-10 -0.0049176554 0)
(-6.1636482e-10 -0.0056293464 0)
(7.4581754e-10 -0.0056293464 0)
(-2.5527633e-10 -0.0049176554 0)
(5.0279469e-10 -0.0035045165 0)
(-1.7306687e-10 -0.0013992586 0)
(-1.2287895e-10 -0.0013992584 0)
(2.7811675e-10 -0.0035045163 0)
(-6.1769897e-10 -0.0049176552 0)
(5.3313434e-10 -0.0056293463 0)
(-4.1509614e-10 -0.0056293463 0)
(7.2541838e-10 -0.0049176552 0)
(-2.078934e-10 -0.0035045163 0)
(1.4242485e-10 -0.0013992584 0)
(1.9092959e-10 -0.0013992583 0)
(-4.2044415e-10 -0.003504516 0)
(3.5939074e-10 -0.004917655 0)
(-6.1632506e-10 -0.0056293462 0)
(7.2624082e-10 -0.0056293462 0)
(-2.5752984e-10 -0.004917655 0)
(4.8917939e-10 -0.0035045161 0)
(-1.7117072e-10 -0.0013992583 0)
(-1.2004077e-10 -0.0013992582 0)
(2.7306697e-10 -0.0035045158 0)
(-6.1292321e-10 -0.0049176548 0)
(5.1721369e-10 -0.0056293461 0)
(-4.1674014e-10 -0.0056293461 0)
(7.0739858e-10 -0.0049176549 0)
(-2.0866777e-10 -0.0035045158 0)
(1.389728e-10 -0.0013992582 0)
(1.8791542e-10 -0.0013992581 0)
(-4.1415806e-10 -0.0035045156 0)
(3.491826e-10 -0.0049176547 0)
(-6.137792e-10 -0.005629346 0)
(7.0788505e-10 -0.005629346 0)
(-2.587879e-10 -0.0049176547 0)
(4.7732532e-10 -0.0035045156 0)
(-1.6845259e-10 -0.0013992581 0)
(-1.1774477e-10 -0.001399258 0)
(2.6714413e-10 -0.0035045154 0)
(-6.0745569e-10 -0.0049176545 0)
(5.0308707e-10 -0.0056293459 0)
(-4.1633074e-10 -0.0056293459 0)
(6.9152954e-10 -0.0049176545 0)
(-2.0721399e-10 -0.0035045154 0)
(1.3622692e-10 -0.001399258 0)
(1.8444919e-10 -0.0013992579 0)
(-4.0879454e-10 -0.0035045152 0)
(3.3913989e-10 -0.0049176543 0)
(-6.0969163e-10 -0.0056293458 0)
(6.9184462e-10 -0.0056293458 0)
(-2.5740902e-10 -0.0049176543 0)
(4.6772342e-10 -0.0035045152 0)
(-1.6516497e-10 -0.0013992579 0)
(-1.1582515e-10 -0.0013992578 0)
(2.6043128e-10 -0.003504515 0)
(-6.01991e-10 -0.0049176541 0)
(4.9035988e-10 -0.0056293457 0)
(-4.1356825e-10 -0.0056293457 0)
(6.7837734e-10 -0.0049176542 0)
(-2.0373054e-10 -0.003504515 0)
(1.3395786e-10 -0.0013992578 0)
(1.8071317e-10 -0.0013992577 0)
(-4.0412562e-10 -0.0035045148 0)
(3.291708e-10 -0.004917654 0)
(-6.0436889e-10 -0.0056293456 0)
(6.7813406e-10 -0.0056293457 0)
(-2.5354768e-10 -0.004917654 0)
(4.5995893e-10 -0.0035045148 0)
(-1.6153802e-10 -0.0013992577 0)
(-1.1416961e-10 -0.0013992576 0)
(2.5328877e-10 -0.0035045146 0)
(-5.965187e-10 -0.0049176538 0)
(4.7891532e-10 -0.0056293456 0)
(-4.087748e-10 -0.0056293456 0)
(6.6757175e-10 -0.0049176538 0)
(-1.9878931e-10 -0.0035045146 0)
(1.3199853e-10 -0.0013992576 0)
(1.7682363e-10 -0.0013992575 0)
(-3.9989235e-10 -0.0035045144 0)
(3.1943703e-10 -0.0049176536 0)
(-5.9802755e-10 -0.0056293455 0)
(6.6641785e-10 -0.0056293455 0)
(-2.4779205e-10 -0.0049176537 0)
(4.5352786e-10 -0.0035045144 0)
(-1.5773202e-10 -0.0013992575 0)
(-1.1271974e-10 -0.0013992574 0)
(2.4598299e-10 -0.0035045142 0)
(-5.9098351e-10 -0.0049176535 0)
(4.6861836e-10 -0.0056293454 0)
(-4.0244014e-10 -0.0056293454 0)
(6.5857938e-10 -0.0049176535 0)
(-1.9290898e-10 -0.0035045142 0)
(1.302469e-10 -0.0013992574 0)
(1.7284805e-10 -0.0013992573 0)
(-3.9595368e-10 -0.003504514 0)
(3.1003357e-10 -0.0049176533 0)
(-5.9092195e-10 -0.0056293453 0)
(6.5628355e-10 -0.0056293453 0)
(-2.4073713e-10 -0.0049176534 0)
(4.4803182e-10 -0.003504514 0)
(-1.5385039e-10 -0.0013992573 0)
(-1.1144862e-10 -0.0013992572 0)
(2.3865533e-10 -0.0035045138 0)
(-5.8541203e-10 -0.0049176532 0)
(4.5928002e-10 -0.0056293452 0)
(-3.9505578e-10 -0.0056293452 0)
(6.5092177e-10 -0.0049176532 0)
(-1.8648142e-10 -0.0035045138 0)
(1.2864428e-10 -0.0013992572 0)
(1.6882734e-10 -0.0013992571 0)
(-3.9226248e-10 -0.0035045136 0)
(3.0096561e-10 -0.004917653 0)
(-5.8333225e-10 -0.0056293451 0)
(6.4734056e-10 -0.0056293452 0)
(-2.3288173e-10 -0.0049176531 0)
(4.4318626e-10 -0.0035045137 0)
(-1.4996052e-10 -0.0013992571 0)
(-1.1034318e-10 -0.001399257 0)
(2.3136885e-10 -0.0035045134 0)
(-5.7988829e-10 -0.0049176529 0)
(4.5069122e-10 -0.0056293451 0)
(-3.8705683e-10 -0.0056293451 0)
(6.4421494e-10 -0.0049176529 0)
(-1.7979118e-10 -0.0035045135 0)
(1.2715679e-10 -0.001399257 0)
(1.6479054e-10 -0.0013992569 0)
(-3.88817e-10 -0.0035045132 0)
(2.9219266e-10 -0.0049176527 0)
(-5.7552661e-10 -0.005629345 0)
(6.3925459e-10 -0.005629345 0)
(-2.246218e-10 -0.0049176528 0)
(4.3879112e-10 -0.0035045133 0)
(-1.4610846e-10 -0.0013992569 0)
(-1.0939376e-10 -0.0013992568 0)
(2.2415306e-10 -0.003504513 0)
(-5.7450922e-10 -0.0049176526 0)
(4.4265896e-10 -0.0056293449 0)
(-3.7880368e-10 -0.005629345 0)
(6.3816109e-10 -0.0049176526 0)
(-1.7304595e-10 -0.0035045131 0)
(1.2576372e-10 -0.0013992568 0)
(1.6076245e-10 -0.0013992567 0)
(-3.8562613e-10 -0.0035045129 0)
(2.8366885e-10 -0.0049176524 0)
(-5.6773312e-10 -0.0056293449 0)
(6.3175708e-10 -0.0056293449 0)
(-2.1626528e-10 -0.0049176525 0)
(4.3470331e-10 -0.0035045129 0)
(-1.4232749e-10 -0.0013992567 0)
(-1.0858998e-10 -0.0013992566 0)
(2.1703035e-10 -0.0035045127 0)
(-5.6935472e-10 -0.0049176523 0)
(4.3502809e-10 -0.0056293448 0)
(-3.7058035e-10 -0.0056293448 0)
(6.3253309e-10 -0.0049176524 0)
(-1.6639962e-10 -0.0035045128 0)
(1.2445129e-10 -0.0013992566 0)
(1.5676643e-10 -0.0013992565 0)
(-3.8269194e-10 -0.0035045125 0)
(2.7536445e-10 -0.0049176522 0)
(-5.6012691e-10 -0.0056293447 0)
(6.246437e-10 -0.0056293448 0)
(-2.0804778e-10 -0.0049176523 0)
(4.3081881e-10 -0.0035045126 0)
(-1.3864285e-10 -0.0013992565 0)
(-1.0791931e-10 -0.0013992564 0)
(2.100277e-10 -0.0035045123 0)
(-5.6447512e-10 -0.004917652 0)
(4.2768834e-10 -0.0056293447 0)
(-3.6259999e-10 -0.0056293447 0)
(6.2716076e-10 -0.0049176521 0)
(-1.5996694e-10 -0.0035045124 0)
(1.2320937e-10 -0.0013992564 0)
(1.5282525e-10 -0.0013992563 0)
(-3.8000398e-10 -0.0035045122 0)
(2.6727321e-10 -0.0049176519 0)
(-5.5282927e-10 -0.0056293446 0)
(6.1776724e-10 -0.0056293447 0)
(-2.0014577e-10 -0.004917652 0)
(4.2706134e-10 -0.0035045123 0)
(-1.3507411e-10 -0.0013992563 0)
(-1.0736745e-10 -0.0013992562 0)
(2.0317907e-10 -0.003504512 0)
(-5.5988972e-10 -0.0049176518 0)
(4.2057196e-10 -0.0056293446 0)
(-3.5501414e-10 -0.0056293446 0)
(6.2191938e-10 -0.0049176519 0)
(-1.5383292e-10 -0.0035045121 0)
(1.2203013e-10 -0.0013992563 0)
(1.4896055e-10 -0.0013992561 0)
(-3.7753983e-10 -0.0035045118 0)
(2.5941032e-10 -0.0049176517 0)
(-5.4591383e-10 -0.0056293445 0)
(6.1102833e-10 -0.0056293446 0)
(-1.9268751e-10 -0.0049176518 0)
(4.2337513e-10 -0.0035045119 0)
(-1.3163639e-10 -0.0013992562 0)
(-1.0691899e-10 -0.001399256 0)
(1.9652396e-10 -0.0035045117 0)
(-5.555919e-10 -0.0049176516 0)
(4.136464e-10 -0.0056293445 0)
(-3.479235e-10 -0.0056293445 0)
(6.167204e-10 -0.0049176517 0)
(-1.4805921e-10 -0.0035045118 0)
(1.2090704e-10 -0.0013992561 0)
(1.4519243e-10 -0.001399256 0)
(-3.7526806e-10 -0.0035045115 0)
(2.5180696e-10 -0.0049176515 0)
(-5.3941586e-10 -0.0056293445 0)
(6.0436536e-10 -0.0056293445 0)
(-1.8576243e-10 -0.0049176516 0)
(4.1972005e-10 -0.0035045116 0)
(-1.2834119e-10 -0.001399256 0)
(-1.0655828e-10 -0.0013992559 0)
(1.9010411e-10 -0.0035045114 0)
(-5.5155586e-10 -0.0049176513 0)
(4.0690522e-10 -0.0056293444 0)
(-3.4138829e-10 -0.0056293445 0)
(6.1150338e-10 -0.0049176514 0)
(-1.4268885e-10 -0.0035045115 0)
(1.1983463e-10 -0.0013992559 0)
(1.4153882e-10 -0.0013992558 0)
(-3.7315223e-10 -0.0035045112 0)
(2.4450368e-10 -0.0049176512 0)
(-5.3334178e-10 -0.0056293444 0)
(5.9774489e-10 -0.0056293444 0)
(-1.7942892e-10 -0.0049176513 0)
(4.1606777e-10 -0.0035045113 0)
(-1.251969e-10 -0.0013992558 0)
(-1.0626995e-10 -0.0013992557 0)
(1.8396035e-10 -0.0035045111 0)
(-5.4774379e-10 -0.0049176511 0)
(4.0035951e-10 -0.0056293444 0)
(-3.3543806e-10 -0.0056293444 0)
(6.0622936e-10 -0.0049176512 0)
(-1.3774988e-10 -0.0035045112 0)
(1.1880808e-10 -0.0013992558 0)
(1.380151e-10 -0.0013992556 0)
(-3.7115406e-10 -0.0035045109 0)
(2.3754441e-10 -0.004917651 0)
(-5.2767816e-10 -0.0056293443 0)
(5.9115373e-10 -0.0056293444 0)
(-1.7372092e-10 -0.0049176511 0)
(4.1239908e-10 -0.003504511 0)
(-1.2220928e-10 -0.0013992557 0)
(-1.0603973e-10 -0.0013992556 0)
(1.7812996e-10 -0.0035045108 0)
(-5.4411182e-10 -0.0049176509 0)
(3.9403064e-10 -0.0056293443 0)
(-3.3007956e-10 -0.0056293444 0)
(6.0087551e-10 -0.004917651 0)
(-1.3325844e-10 -0.0035045109 0)
(1.1782332e-10 -0.0013992556 0)
(1.3463378e-10 -0.0013992555 0)
(-3.6923624e-10 -0.0035045107 0)
(2.3097186e-10 -0.0049176509 0)
(-5.2239869e-10 -0.0056293443 0)
(5.8459221e-10 -0.0056293443 0)
(-1.6865363e-10 -0.004917651 0)
(4.0870165e-10 -0.0035045108 0)
(-1.1938169e-10 -0.0013992555 0)
(-1.0585444e-10 -0.0013992554 0)
(1.7264519e-10 -0.0035045105 0)
(-5.4061465e-10 -0.0049176508 0)
(3.8794455e-10 -0.0056293443 0)
(-3.2530344e-10 -0.0056293443 0)
(5.9543071e-10 -0.0049176509 0)
(-1.2922103e-10 -0.0035045106 0)
(1.1687664e-10 -0.0013992554 0)
(1.3140476e-10 -0.0013992553 0)
(-3.6736415e-10 -0.0035045104 0)
(2.2482423e-10 -0.0049176507 0)
(-5.174699e-10 -0.0056293443 0)
(5.7806915e-10 -0.0056293443 0)
(-1.6422783e-10 -0.0049176508 0)
(4.049684e-10 -0.0035045105 0)
(-1.1671545e-10 -0.0013992554 0)
(-1.0570245e-10 -0.0013992553 0)
(1.6753182e-10 -0.0035045103 0)
(-5.3720858e-10 -0.0049176506 0)
(3.8212768e-10 -0.0056293443 0)
(-3.210893e-10 -0.0056293443 0)
(5.8989233e-10 -0.0049176507 0)
(-1.2563651e-10 -0.0035045104 0)
(1.1596488e-10 -0.0013992553 0)
(1.2833502e-10 -0.0013992552 0)
(-3.6550705e-10 -0.0035045101 0)
(2.1913317e-10 -0.0049176505 0)
(-5.1285506e-10 -0.0056293442 0)
(5.7159809e-10 -0.0056293443 0)
(-1.6043326e-10 -0.0049176506 0)
(4.0119613e-10 -0.0035045102 0)
(-1.142101e-10 -0.0013992552 0)
(-1.0557358e-10 -0.0013992551 0)
(1.6280907e-10 -0.00350451 0)
(-5.3385394e-10 -0.0049176504 0)
(3.766042e-10 -0.0056293442 0)
(-3.1740955e-10 -0.0056293443 0)
(5.8426382e-10 -0.0049176505 0)
(-1.2249772e-10 -0.0035045101 0)
(1.1508523e-10 -0.0013992552 0)
(1.2542912e-10 -0.001399255 0)
(-3.6363875e-10 -0.0035045099 0)
(2.1392265e-10 -0.0049176504 0)
(-5.0851728e-10 -0.0056293442 0)
(5.6519471e-10 -0.0056293443 0)
(-1.5725159e-10 -0.0049176505 0)
(3.973847e-10 -0.00350451 0)
(-1.1186372e-10 -0.0013992551 0)
(-1.0545923e-10 -0.001399255 0)
(1.5848943e-10 -0.0035045098 0)
(-5.3051619e-10 -0.0049176503 0)
(3.7139448e-10 -0.0056293442 0)
(-3.1423223e-10 -0.0056293443 0)
(5.7855256e-10 -0.0049176504 0)
(-1.1979267e-10 -0.0035045099 0)
(1.1423528e-10 -0.001399255 0)
(1.2268913e-10 -0.0013992549 0)
(-3.6173782e-10 -0.0035045097 0)
(2.0920863e-10 -0.0049176502 0)
(-5.0442108e-10 -0.0056293442 0)
(5.5887503e-10 -0.0056293443 0)
(-1.5465847e-10 -0.0049176503 0)
(3.935362e-10 -0.0035045097 0)
(-1.0967297e-10 -0.0013992549 0)
(-1.0535229e-10 -0.0013992548 0)
(1.5457907e-10 -0.0035045095 0)
(-5.2716656e-10 -0.0049176502 0)
(3.6651405e-10 -0.0056293442 0)
(-3.1152305e-10 -0.0056293443 0)
(5.7276881e-10 -0.0049176502 0)
(-1.1750569e-10 -0.0035045096 0)
(1.1341295e-10 -0.0013992549 0)
(1.2011516e-10 -0.0013992548 0)
(-3.5978753e-10 -0.0035045094 0)
(2.049993e-10 -0.0049176501 0)
(-5.0053376e-10 -0.0056293442 0)
(5.526542e-10 -0.0056293443 0)
(-1.5262524e-10 -0.0049176502 0)
(3.8965439e-10 -0.0035045095 0)
(-1.0763355e-10 -0.0013992548 0)
(-1.0524696e-10 -0.0013992547 0)
(1.5107825e-10 -0.0035045093 0)
(-5.2378201e-10 -0.00491765 0)
(3.6197337e-10 -0.0056293442 0)
(-3.0924686e-10 -0.0056293443 0)
(5.6692446e-10 -0.0049176501 0)
(-1.1561824e-10 -0.0035045094 0)
(1.1261651e-10 -0.0013992547 0)
(1.1770541e-10 -0.0013992546 0)
(-3.5777552e-10 -0.0035045092 0)
(2.0129554e-10 -0.00491765 0)
(-4.9682582e-10 -0.0056293442 0)
(5.4654593e-10 -0.0056293443 0)
(-1.511203e-10 -0.0049176501 0)
(3.8574425e-10 -0.0035045093 0)
(-1.0574025e-10 -0.0013992547 0)
(-1.0513876e-10 -0.0013992546 0)
(1.4798224e-10 -0.0035045091 0)
(-5.2034527e-10 -0.0049176499 0)
(3.5777799e-10 -0.0056293442 0)
(-3.0736865e-10 -0.0056293443 0)
(5.6103243e-10 -0.00491765 0)
(-1.1410975e-10 -0.0035045092 0)
(1.1184442e-10 -0.0013992546 0)
(1.1545654e-10 -0.0013992545 0)
(-3.5569343e-10 -0.003504509 0)
(1.9809187e-10 -0.0049176499 0)
(-4.9327146e-10 -0.0056293443 0)
(5.4056206e-10 -0.0056293443 0)
(-1.5011018e-10 -0.0049176499 0)
(3.8181163e-10 -0.0035045091 0)
(-1.0398715e-10 -0.0013992546 0)
(-1.0502429e-10 -0.0013992545 0)
(1.4528185e-10 -0.0035045089 0)
(-5.1684405e-10 -0.0049176498 0)
(3.5392878e-10 -0.0056293443 0)
(-3.0585427e-10 -0.0056293443 0)
(5.5510605e-10 -0.0049176499 0)
(-1.1295813e-10 -0.003504509 0)
(1.1109544e-10 -0.0013992545 0)
(1.1336394e-10 -0.0013992544 0)
(-3.5353645e-10 -0.0035045088 0)
(1.9537716e-10 -0.0049176498 0)
(-4.8984825e-10 -0.0056293443 0)
(5.3471241e-10 -0.0056293443 0)
(-1.4956038e-10 -0.0049176498 0)
(3.77863e-10 -0.0035045089 0)
(-1.0236786e-10 -0.0013992544 0)
(-1.049011e-10 -0.0013992543 0)
(1.4296425e-10 -0.0035045087 0)
(-5.1327063e-10 -0.0049176497 0)
(3.5042253e-10 -0.0056293443 0)
(-3.0467094e-10 -0.0056293443 0)
(5.4915862e-10 -0.0049176498 0)
(-1.1214043e-10 -0.0035045088 0)
(1.1036851e-10 -0.0013992544 0)
(1.1142205e-10 -0.0013992543 0)
(-3.5130274e-10 -0.0035045086 0)
(1.9313564e-10 -0.0049176497 0)
(-4.8653722e-10 -0.0056293443 0)
(5.2900481e-10 -0.0056293443 0)
(-1.4943612e-10 -0.0049176497 0)
(3.7390502e-10 -0.0035045087 0)
(-1.008756e-10 -0.0013992543 0)
(-1.0476761e-10 -0.0013992542 0)
(1.4101367e-10 -0.0035045085 0)
(-5.0962129e-10 -0.0049176496 0)
(3.4725229e-10 -0.0056293443 0)
(-3.0378739e-10 -0.0056293444 0)
(5.4320318e-10 -0.0049176497 0)
(-1.1163324e-10 -0.0035045086 0)
(1.0966276e-10 -0.0013992543 0)
(1.0962441e-10 -0.0013992542 0)
(-3.4899298e-10 -0.0035045084 0)
(1.9134761e-10 -0.0049176496 0)
(-4.833225e-10 -0.0056293443 0)
(5.234451e-10 -0.0056293444 0)
(-1.497027e-10 -0.0049176496 0)
(3.6994461e-10 -0.0035045085 0)
(-9.9503415e-11 -0.0013992542 0)
(-1.0462282e-10 -0.0013992541 0)
(1.3941211e-10 -0.0035045083 0)
(-5.0589572e-10 -0.0049176495 0)
(3.4440825e-10 -0.0056293444 0)
(-3.0317416e-10 -0.0056293444 0)
(5.3725226e-10 -0.0049176496 0)
(-1.1141304e-10 -0.0035045084 0)
(1.0897737e-10 -0.0013992541 0)
(1.0796413e-10 -0.0013992541 0)
(-3.4660982e-10 -0.0035045082 0)
(1.8999081e-10 -0.0049176495 0)
(-4.8019087e-10 -0.0056293444 0)
(5.1803744e-10 -0.0056293444 0)
(-1.5032616e-10 -0.0049176495 0)
(3.6598855e-10 -0.0035045083 0)
(-9.8244194e-11 -0.0013992541 0)
(-1.0446633e-10 -0.001399254 0)
(1.3813988e-10 -0.0035045082 0)
(-5.0209583e-10 -0.0049176494 0)
(3.4187818e-10 -0.0056293444 0)
(-3.0280361e-10 -0.0056293444 0)
(5.3131762e-10 -0.0049176495 0)
(-1.1145648e-10 -0.0035045082 0)
(1.0831168e-10 -0.001399254 0)
(1.0643378e-10 -0.001399254 0)
(-3.441576e-10 -0.0035045081 0)
(1.8904036e-10 -0.0049176494 0)
(-4.7713152e-10 -0.0056293444 0)
(5.127842e-10 -0.0056293444 0)
(-1.5127335e-10 -0.0049176495 0)
(3.6204343e-10 -0.0035045081 0)
(-9.7090863e-11 -0.001399254 0)
(-1.0429813e-10 -0.0013992539 0)
(1.3717619e-10 -0.003504508 0)
(-4.9822636e-10 -0.0049176494 0)
(3.3964776e-10 -0.0056293444 0)
(-3.0264991e-10 -0.0056293445 0)
(5.2541034e-10 -0.0049176494 0)
(-1.1174076e-10 -0.003504508 0)
(1.07665e-10 -0.0013992539 0)
(1.0502588e-10 -0.0013992539 0)
(-3.4164166e-10 -0.0035045079 0)
(1.8847028e-10 -0.0049176493 0)
(-4.7413576e-10 -0.0056293445 0)
(5.0768646e-10 -0.0056293445 0)
(-1.5251238e-10 -0.0049176494 0)
(3.5811554e-10 -0.003504508 0)
(-9.6036408e-11 -0.0013992539 0)
(-1.0411855e-10 -0.0013992538 0)
(1.3649972e-10 -0.0035045078 0)
(-4.942928e-10 -0.0049176493 0)
(3.3770151e-10 -0.0056293445 0)
(-3.0268903e-10 -0.0056293445 0)
(5.1954047e-10 -0.0049176494 0)
(-1.1224371e-10 -0.0035045079 0)
(1.0703676e-10 -0.0013992538 0)
(1.0373272e-10 -0.0013992538 0)
(-3.3906819e-10 -0.0035045077 0)
(1.8825357e-10 -0.0049176493 0)
(-4.7119655e-10 -0.0056293445 0)
(5.0274407e-10 -0.0056293445 0)
(-1.5401271e-10 -0.0049176493 0)
(3.5421074e-10 -0.0035045078 0)
(-9.5073994e-11 -0.0013992538 0)
(-1.0392801e-10 -0.0013992537 0)
(1.3608879e-10 -0.0035045077 0)
(-4.9030243e-10 -0.0049176492 0)
(3.3602272e-10 -0.0056293445 0)
(-3.0289864e-10 -0.0056293446 0)
(5.1371726e-10 -0.0049176493 0)
(-1.1294394e-10 -0.0035045077 0)
(1.0642626e-10 -0.0013992537 0)
(1.0254679e-10 -0.0013992537 0)
(-3.364439e-10 -0.0035045076 0)
(1.8836283e-10 -0.0049176492 0)
(-4.683083e-10 -0.0056293446 0)
(4.9795571e-10 -0.0056293446 0)
(-1.5574523e-10 -0.0049176493 0)
(3.503346e-10 -0.0035045076 0)
(-9.4196958e-11 -0.0013992537 0)
(-1.0372722e-10 -0.0013992536 0)
(1.3592184e-10 -0.0035045075 0)
(-4.8626288e-10 -0.0049176492 0)
(3.3459417e-10 -0.0056293446 0)
(-3.0325801e-10 -0.0056293446 0)
(5.0794899e-10 -0.0049176492 0)
(-1.13821e-10 -0.0035045076 0)
(1.0583295e-10 -0.0013992536 0)
(1.0146048e-10 -0.0013992536 0)
(-3.3377574e-10 -0.0035045074 0)
(1.8877085e-10 -0.0049176491 0)
(-4.6546647e-10 -0.0056293446 0)
(4.9331912e-10 -0.0056293446 0)
(-1.5768232e-10 -0.0049176492 0)
(3.4649203e-10 -0.0035045075 0)
(-9.3398822e-11 -0.0013992536 0)
(-1.0351687e-10 -0.0013992535 0)
(1.3597761e-10 -0.0035045074 0)
(-4.8218217e-10 -0.0049176491 0)
(3.3339827e-10 -0.0056293446 0)
(-3.0374796e-10 -0.0056293447 0)
(5.0224294e-10 -0.0049176492 0)