/*--------------------------------*- C++ -*----------------------------------*\
| =========                 |                                                 |
| \\      /  F ield         | OpenFOAM: The Open Source CFD Toolbox           |
|  \\    /   O peration     | Version:  5.x                                   |
|   \\  /    A nd           | Web:      www.OpenFOAM.org                      |
|    \\/     M anipulation  |                                                 |
\*---------------------------------------------------------------------------*/
FoamFile
{
    version     2.0;
    format      ascii;
    class       volScalarField;
    location    "9";
    object      p;
}
// * * * * * * * * * * * * * * * * * * * * * * * * * * * * * * * * * * * * * //

dimensions      [0 2 -2 0 0 0 0];

internalField   nonuniform List<scalar> 
1920
(
-6777.8313
-6777.8387
-6777.8218
-6777.806
-6777.806
-6777.8218
-6777.8387
-6777.8313
-6777.8261
-6777.8329
-6777.8235
-6777.813
-6777.8129
-6777.8235
-6777.8328
-6777.8261
-6777.822
-6777.8284
-6777.8261
-6777.8205
-6777.8205
-6777.8261
-6777.8284
-6777.822
-6777.8189
-6777.827
-6777.8292
-6777.827
-6777.827
-6777.8292
-6777.827
-6777.8189
-6777.8187
-6777.828
-6777.8331
-6777.8329
-6777.8329
-6777.8331
-6777.828
-6777.8187
-6777.8211
-6777.8313
-6777.8379
-6777.839
-6777.839
-6777.8379
-6777.8313
-6777.8211
-6777.826
-6777.8363
-6777.8438
-6777.8457
-6777.8457
-6777.8438
-6777.8363
-6777.826
-6777.8329
-6777.8432
-6777.8507
-6777.8531
-6777.8531
-6777.8507
-6777.8432
-6777.8329
-6777.8418
-6777.8514
-6777.8587
-6777.8612
-6777.8612
-6777.8587
-6777.8514
-6777.8418
-6777.8521
-6777.8609
-6777.8676
-6777.8701
-6777.8701
-6777.8676
-6777.8609
-6777.8521
-6777.8637
-6777.8713
-6777.8773
-6777.8796
-6777.8796
-6777.8773
-6777.8713
-6777.8637
-6777.8761
-6777.8826
-6777.8877
-6777.8898
-6777.8898
-6777.8877
-6777.8827
-6777.8761
-6777.8892
-6777.8945
-6777.8988
-6777.9006
-6777.9006
-6777.8988
-6777.8945
-6777.8892
-6777.9026
-6777.9068
-6777.9103
-6777.9118
-6777.9118
-6777.9103
-6777.9068
-6777.9026
-6777.9161
-6777.9194
-6777.9221
-6777.9234
-6777.9234
-6777.9222
-6777.9194
-6777.9161
-6777.9297
-6777.9322
-6777.9343
-6777.9353
-6777.9353
-6777.9343
-6777.9322
-6777.9298
-6777.9433
-6777.9451
-6777.9467
-6777.9475
-6777.9475
-6777.9467
-6777.9452
-6777.9433
-6777.9568
-6777.9581
-6777.9592
-6777.9598
-6777.9598
-6777.9592
-6777.9581
-6777.9568
-6777.9702
-6777.9711
-6777.9718
-6777.9723
-6777.9723
-6777.9719
-6777.9711
-6777.9702
-6777.9834
-6777.984
-6777.9846
-6777.9849
-6777.9849
-6777.9846
-6777.984
-6777.9835
-6777.9966
-6777.9969
-6777.9973
-6777.9975
-6777.9975
-6777.9973
-6777.9969
-6777.9966
-6778.0096
-6778.0098
-6778.0101
-6778.0102
-6778.0102
-6778.0101
-6778.0098
-6778.0096
-6778.0226
-6778.0227
-6778.0228
-6778.023
-6778.023
-6778.0228
-6778.0227
-6778.0226
-6778.0355
-6778.0355
-6778.0356
-6778.0357
-6778.0357
-6778.0356
-6778.0355
-6778.0355
-6778.0483
-6778.0484
-6778.0484
-6778.0485
-6778.0485
-6778.0484
-6778.0484
-6778.0483
-6778.0611
-6778.0612
-6778.0612
-6778.0612
-6778.0612
-6778.0612
-6778.0612
-6778.0611
-6778.0739
-6778.074
-6778.074
-6778.074
-6778.074
-6778.074
-6778.074
-6778.0739
-6778.0867
-6778.0867
-6778.0868
-6778.0868
-6778.0868
-6778.0868
-6778.0867
-6778.0867
-6778.0995
-6778.0995
-6778.0995
-6778.0996
-6778.0996
-6778.0995
-6778.0995
-6778.0995
-6778.1123
-6778.1123
-6778.1123
-6778.1123
-6778.1123
-6778.1123
-6778.1123
-6778.1123
-6778.125
-6778.1251
-6778.1251
-6778.1251
-6778.1251
-6778.1251
-6778.1251
-6778.125
-6778.1378
-6778.1379
-6778.1379
-6778.1379
-6778.1379
-6778.1379
-6778.1379
-6778.1378
-6778.1506
-6778.1507
-6778.1507
-6778.1507
-6778.1507
-6778.1507
-6778.1506
-6778.1506
-6778.1634
-6778.1634
-6778.1635
-6778.1635
-6778.1635
-6778.1635
-6778.1634
-6778.1634
-6778.1762
-6778.1762
-6778.1763
-6778.1763
-6778.1763
-6778.1763
-6778.1762
-6778.1762
-6778.189
-6778.189
-6778.1891
-6778.1891
-6778.1891
-6778.1891
-6778.189
-6778.189
-6778.2018
-6778.2018
-6778.2019
-6778.2019
-6778.2019
-6778.2018
-6778.2018
-6778.2018
-6778.2146
-6778.2146
-6778.2147
-6778.2147
-6778.2147
-6778.2146
-6778.2146
-6778.2146
-6778.2274
-6778.2274
-6778.2275
-6778.2275
-6778.2275
-6778.2274
-6778.2274
-6778.2274
-6778.2402
-6778.2402
-6778.2403
-6778.2403
-6778.2403
-6778.2403
-6778.2402
-6778.2402
-6778.253
-6778.253
-6778.2531
-6778.2531
-6778.2531
-6778.2531
-6778.253
-6778.253
-6778.2658
-6778.2658
-6778.2659
-6778.2659
-6778.2659
-6778.2659
-6778.2658
-6778.2658
-6778.2786
-6778.2787
-6778.2787
-6778.2787
-6778.2787
-6778.2787
-6778.2787
-6778.2786
-6778.2914
-6778.2915
-6778.2915
-6778.2915
-6778.2915
-6778.2915
-6778.2915
-6778.2914
-6778.3042
-6778.3043
-6778.3043
-6778.3043
-6778.3043
-6778.3043
-6778.3043
-6778.3042
-6778.3171
-6778.3171
-6778.3171
-6778.3172
-6778.3172
-6778.3171
-6778.3171
-6778.3171
-6778.3299
-6778.3299
-6778.33
-6778.33
-6778.33
-6778.33
-6778.3299
-6778.3299
-6778.3427
-6778.3428
-6778.3428
-6778.3428
-6778.3428
-6778.3428
-6778.3428
-6778.3427
-6778.3555
-6778.3556
-6778.3556
-6778.3556
-6778.3556
-6778.3556
-6778.3556
-6778.3555
-6778.3684
-6778.3684
-6778.3685
-6778.3685
-6778.3685
-6778.3685
-6778.3684
-6778.3684
-6778.3812
-6778.3813
-6778.3813
-6778.3813
-6778.3813
-6778.3813
-6778.3813
-6778.3812
-6778.3941
-6778.3941
-6778.3941
-6778.3941
-6778.3941
-6778.3941
-6778.3941
-6778.394
-6778.4069
-6778.4069
-6778.407
-6778.407
-6778.407
-6778.407
-6778.4069
-6778.4069
-6778.4197
-6778.4198
-6778.4198
-6778.4198
-6778.4198
-6778.4198
-6778.4198
-6778.4197
-6778.4326
-6778.4326
-6778.4326
-6778.4326
-6778.4326
-6778.4326
-6778.4326
-6778.4326
-6778.4454
-6778.4454
-6778.4455
-6778.4455
-6778.4455
-6778.4455
-6778.4454
-6778.4454
-6778.4583
-6778.4583
-6778.4583
-6778.4583
-6778.4583
-6778.4583
-6778.4583
-6778.4583
-6778.4711
-6778.4711
-6778.4712
-6778.4712
-6778.4712
-6778.4712
-6778.4711
-6778.4711
-6778.484
-6778.484
-6778.484
-6778.484
-6778.484
-6778.484
-6778.484
-6778.4839
-6778.4968
-6778.4968
-6778.4969
-6778.4969
-6778.4969
-6778.4969
-6778.4968
-6778.4968
-6778.5097
-6778.5097
-6778.5097
-6778.5097
-6778.5097
-6778.5097
-6778.5097
-6778.5097
-6778.5225
-6778.5225
-6778.5226
-6778.5226
-6778.5226
-6778.5226
-6778.5225
-6778.5225
-6778.5354
-6778.5354
-6778.5354
-6778.5354
-6778.5354
-6778.5354
-6778.5354
-6778.5354
-6778.5482
-6778.5483
-6778.5483
-6778.5483
-6778.5483
-6778.5483
-6778.5483
-6778.5482
-6778.5611
-6778.5611
-6778.5611
-6778.5611
-6778.5611
-6778.5611
-6778.5611
-6778.5611
-6778.5739
-6778.574
-6778.574
-6778.574
-6778.574
-6778.574
-6778.574
-6778.5739
-6778.5868
-6778.5868
-6778.5869
-6778.5869
-6778.5869
-6778.5869
-6778.5868
-6778.5868
-6778.5997
-6778.5997
-6778.5997
-6778.5997
-6778.5997
-6778.5997
-6778.5997
-6778.5997
-6778.6125
-6778.6126
-6778.6126
-6778.6126
-6778.6126
-6778.6126
-6778.6126
-6778.6125
-6778.6254
-6778.6254
-6778.6254
-6778.6255
-6778.6255
-6778.6254
-6778.6254
-6778.6254
-6778.6383
-6778.6383
-6778.6383
-6778.6383
-6778.6383
-6778.6383
-6778.6383
-6778.6383
-6778.6511
-6778.6512
-6778.6512
-6778.6512
-6778.6512
-6778.6512
-6778.6512
-6778.6511
-6778.664
-6778.664
-6778.664
-6778.6641
-6778.6641
-6778.664
-6778.664
-6778.664
-6778.6769
-6778.6769
-6778.6769
-6778.6769
-6778.6769
-6778.6769
-6778.6769
-6778.6769
-6778.6897
-6778.6898
-6778.6898
-6778.6898
-6778.6898
-6778.6898
-6778.6898
-6778.6897
-6778.7026
-6778.7026
-6778.7027
-6778.7027
-6778.7027
-6778.7027
-6778.7026
-6778.7026
-6778.7155
-6778.7155
-6778.7155
-6778.7155
-6778.7155
-6778.7155
-6778.7155
-6778.7155
-6778.7284
-6778.7284
-6778.7284
-6778.7284
-6778.7284
-6778.7284
-6778.7284
-6778.7284
-6778.7412
-6778.7413
-6778.7413
-6778.7413
-6778.7413
-6778.7413
-6778.7413
-6778.7412
-6778.7541
-6778.7541
-6778.7542
-6778.7542
-6778.7542
-6778.7542
-6778.7541
-6778.7541
-6778.767
-6778.767
-6778.767
-6778.767
-6778.767
-6778.767
-6778.767
-6778.767
-6778.7799
-6778.7799
-6778.7799
-6778.7799
-6778.7799
-6778.7799
-6778.7799
-6778.7799
-6778.7928
-6778.7928
-6778.7928
-6778.7928
-6778.7928
-6778.7928
-6778.7928
-6778.7928
-6778.8056
-6778.8057
-6778.8057
-6778.8057
-6778.8057
-6778.8057
-6778.8057
-6778.8056
-6778.8185
-6778.8185
-6778.8185
-6778.8186
-6778.8186
-6778.8185
-6778.8185
-6778.8185
-6778.8314
-6778.8314
-6778.8314
-6778.8314
-6778.8314
-6778.8314
-6778.8314
-6778.8314
-6778.8443
-6778.8443
-6778.8443
-6778.8443
-6778.8443
-6778.8443
-6778.8443
-6778.8443
-6778.8572
-6778.8572
-6778.8572
-6778.8572
-6778.8572
-6778.8572
-6778.8572
-6778.8572
-6778.87
-6778.8701
-6778.8701
-6778.8701
-6778.8701
-6778.8701
-6778.8701
-6778.87
-6778.8829
-6778.8829
-6778.883
-6778.883
-6778.883
-6778.883
-6778.8829
-6778.8829
-6778.8958
-6778.8958
-6778.8958
-6778.8958
-6778.8958
-6778.8958
-6778.8958
-6778.8958
-6778.9087
-6778.9087
-6778.9087
-6778.9087
-6778.9087
-6778.9087
-6778.9087
-6778.9087
-6778.9216
-6778.9216
-6778.9216
-6778.9216
-6778.9216
-6778.9216
-6778.9216
-6778.9216
-6778.9345
-6778.9345
-6778.9345
-6778.9345
-6778.9345
-6778.9345
-6778.9345
-6778.9345
-6778.9474
-6778.9474
-6778.9474
-6778.9474
-6778.9474
-6778.9474
-6778.9474
-6778.9474
-6778.9602
-6778.9603
-6778.9603
-6778.9603
-6778.9603
-6778.9603
-6778.9603
-6778.9602
-6778.9731
-6778.9731
-6778.9732
-6778.9732
-6778.9732
-6778.9732
-6778.9731
-6778.9731
-6778.986
-6778.986
-6778.986
-6778.986
-6778.986
-6778.986
-6778.986
-6778.986
-6778.9989
-6778.9989
-6778.9989
-6778.9989
-6778.9989
-6778.9989
-6778.9989
-6778.9989
-6779.0118
-6779.0118
-6779.0118
-6779.0118
-6779.0118
-6779.0118
-6779.0118
-6779.0118
-6779.0247
-6779.0247
-6779.0247
-6779.0247
-6779.0247
-6779.0247
-6779.0247
-6779.0247
-6779.0376
-6779.0376
-6779.0376
-6779.0376
-6779.0376
-6779.0376
-6779.0376
-6779.0376
-6779.0505
-6779.0505
-6779.0505
-6779.0505
-6779.0505
-6779.0505
-6779.0505
-6779.0505
-6779.0634
-6779.0634
-6779.0634
-6779.0634
-6779.0634
-6779.0634
-6779.0634
-6779.0634
-6779.0762
-6779.0763
-6779.0763
-6779.0763
-6779.0763
-6779.0763
-6779.0762
-6779.0762
-6779.0891
-6779.0891
-6779.0891
-6779.0891
-6779.0891
-6779.0891
-6779.0891
-6779.0891
-6779.102
-6779.102
-6779.102
-6779.102
-6779.102
-6779.102
-6779.102
-6779.102
-6779.1149
-6779.1149
-6779.1149
-6779.1149
-6779.1149
-6779.1149
-6779.1149
-6779.1149
-6779.1278
-6779.1278
-6779.1278
-6779.1278
-6779.1278
-6779.1278
-6779.1278
-6779.1278
-6779.1407
-6779.1407
-6779.1407
-6779.1407
-6779.1407
-6779.1407
-6779.1407
-6779.1407
-6779.1536
-6779.1536
-6779.1536
-6779.1536
-6779.1536
-6779.1536
-6779.1536
-6779.1536
-6779.1665
-6779.1665
-6779.1665
-6779.1665
-6779.1665
-6779.1665
-6779.1665
-6779.1665
-6779.1794
-6779.1794
-6779.1794
-6779.1794
-6779.1794
-6779.1794
-6779.1794
-6779.1794
-6779.1923
-6779.1923
-6779.1923
-6779.1923
-6779.1923
-6779.1923
-6779.1923
-6779.1923
-6779.2051
-6779.2052
-6779.2052
-6779.2052
-6779.2052
-6779.2052
-6779.2051
-6779.2051
-6779.218
-6779.218
-6779.218
-6779.218
-6779.218
-6779.218
-6779.218
-6779.218
-6779.2309
-6779.2309
-6779.2309
-6779.2309
-6779.2309
-6779.2309
-6779.2309
-6779.2309
-6779.2438
-6779.2438
-6779.2438
-6779.2438
-6779.2438
-6779.2438
-6779.2438
-6779.2438
-6779.2567
-6779.2567
-6779.2567
-6779.2567
-6779.2567
-6779.2567
-6779.2567
-6779.2567
-6779.2696
-6779.2696
-6779.2696
-6779.2696
-6779.2696
-6779.2696
-6779.2696
-6779.2696
-6779.2825
-6779.2825
-6779.2825
-6779.2825
-6779.2825
-6779.2825
-6779.2825
-6779.2825
-6779.2954
-6779.2954
-6779.2954
-6779.2954
-6779.2954
-6779.2954
-6779.2954
-6779.2954
-6779.3083
-6779.3083
-6779.3083
-6779.3083
-6779.3083
-6779.3083
-6779.3083
-6779.3083
-6779.3212
-6779.3212
-6779.3212
-6779.3212
-6779.3212
-6779.3212
-6779.3212
-6779.3212
-6779.3341
-6779.3341
-6779.3341
-6779.3341
-6779.3341
-6779.3341
-6779.3341
-6779.334
-6779.3469
-6779.3469
-6779.3469
-6779.3469
-6779.3469
-6779.3469
-6779.3469
-6779.3469
-6779.3598
-6779.3598
-6779.3598
-6779.3598
-6779.3598
-6779.3598
-6779.3598
-6779.3598
-6779.3727
-6779.3727
-6779.3727
-6779.3727
-6779.3727
-6779.3727
-6779.3727
-6779.3727
-6779.3856
-6779.3856
-6779.3856
-6779.3856
-6779.3856
-6779.3856
-6779.3856
-6779.3856
-6779.3985
-6779.3985
-6779.3985
-6779.3985
-6779.3985
-6779.3985
-6779.3985
-6779.3985
-6779.4114
-6779.4114
-6779.4114
-6779.4114
-6779.4114
-6779.4114
-6779.4114
-6779.4114
-6779.4243
-6779.4243
-6779.4243
-6779.4243
-6779.4243
-6779.4243
-6779.4243
-6779.4243
-6779.4372
-6779.4372
-6779.4372
-6779.4372
-6779.4372
-6779.4372
-6779.4372
-6779.4372
-6779.4501
-6779.4501
-6779.4501
-6779.4501
-6779.4501
-6779.4501
-6779.4501
-6779.4501
-6779.463
-6779.463
-6779.463
-6779.463
-6779.463
-6779.463
-6779.463
-6779.463
-6779.4758
-6779.4758
-6779.4758
-6779.4758
-6779.4758
-6779.4758
-6779.4758
-6779.4758
-6779.4887
-6779.4887
-6779.4887
-6779.4887
-6779.4887
-6779.4887
-6779.4887
-6779.4887
-6779.5016
-6779.5016
-6779.5016
-6779.5016
-6779.5016
-6779.5016
-6779.5016
-6779.5016
-6779.5145
-6779.5145
-6779.5145
-6779.5145
-6779.5145
-6779.5145
-6779.5145
-6779.5145
-6779.5274
-6779.5274
-6779.5274
-6779.5274
-6779.5274
-6779.5274
-6779.5274
-6779.5274
-6779.5403
-6779.5403
-6779.5403
-6779.5403
-6779.5403
-6779.5403
-6779.5403
-6779.5403
-6779.5532
-6779.5532
-6779.5532
-6779.5532
-6779.5532
-6779.5532
-6779.5532
-6779.5532
-6779.5661
-6779.5661
-6779.5661
-6779.5661
-6779.5661
-6779.5661
-6779.5661
-6779.5661
-6779.579
-6779.579
-6779.579
-6779.579
-6779.579
-6779.579
-6779.579
-6779.579
-6779.5918
-6779.5918
-6779.5918
-6779.5918
-6779.5918
-6779.5918
-6779.5918
-6779.5918
-6779.6047
-6779.6047
-6779.6047
-6779.6047
-6779.6047
-6779.6047
-6779.6047
-6779.6047
-6779.6176
-6779.6176
-6779.6176
-6779.6176
-6779.6176
-6779.6176
-6779.6176
-6779.6176
-6779.6305
-6779.6305
-6779.6305
-6779.6305
-6779.6305
-6779.6305
-6779.6305
-6779.6305
-6779.6434
-6779.6434
-6779.6434
-6779.6434
-6779.6434
-6779.6434
-6779.6434
-6779.6434
-6779.6563
-6779.6563
-6779.6563
-6779.6563
-6779.6563
-6779.6563
-6779.6563
-6779.6563
-6779.6692
-6779.6692
-6779.6692
-6779.6692
-6779.6692
-6779.6692
-6779.6692
-6779.6692
-6779.6821
-6779.682
-6779.682
-6779.682
-6779.682
-6779.682
-6779.682
-6779.6821
-6779.6949
-6779.6949
-6779.6949
-6779.6949
-6779.6949
-6779.6949
-6779.6949
-6779.6949
-6779.7078
-6779.7078
-6779.7078
-6779.7078
-6779.7078
-6779.7078
-6779.7078
-6779.7078
-6779.7207
-6779.7207
-6779.7207
-6779.7207
-6779.7207
-6779.7207
-6779.7207
-6779.7207
-6779.7336
-6779.7336
-6779.7336
-6779.7336
-6779.7336
-6779.7336
-6779.7336
-6779.7336
-6779.7465
-6779.7465
-6779.7465
-6779.7465
-6779.7465
-6779.7465
-6779.7465
-6779.7465
-6779.7594
-6779.7594
-6779.7594
-6779.7593
-6779.7593
-6779.7594
-6779.7594
-6779.7594
-6779.7722
-6779.7722
-6779.7722
-6779.7722
-6779.7722
-6779.7722
-6779.7722
-6779.7722
-6779.7851
-6779.7851
-6779.7851
-6779.7851
-6779.7851
-6779.7851
-6779.7851
-6779.7851
-6779.798
-6779.798
-6779.798
-6779.798
-6779.798
-6779.798
-6779.798
-6779.798
-6779.8109
-6779.8109
-6779.8109
-6779.8109
-6779.8109
-6779.8109
-6779.8109
-6779.8109
-6779.8238
-6779.8238
-6779.8238
-6779.8238
-6779.8238
-6779.8238
-6779.8238
-6779.8238
-6779.8366
-6779.8366
-6779.8366
-6779.8366
-6779.8366
-6779.8366
-6779.8366
-6779.8366
-6779.8495
-6779.8495
-6779.8495
-6779.8495
-6779.8495
-6779.8495
-6779.8495
-6779.8495
-6779.8624
-6779.8624
-6779.8624
-6779.8624
-6779.8624
-6779.8624
-6779.8624
-6779.8624
-6779.8753
-6779.8753
-6779.8753
-6779.8753
-6779.8753
-6779.8753
-6779.8753
-6779.8753
-6779.8882
-6779.8882
-6779.8882
-6779.8882
-6779.8882
-6779.8882
-6779.8882
-6779.8882
-6779.901
-6779.901
-6779.901
-6779.901
-6779.901
-6779.901
-6779.901
-6779.901
-6779.9139
-6779.9139
-6779.9139
-6779.9139
-6779.9139
-6779.9139
-6779.9139
-6779.9139
-6779.9268
-6779.9268
-6779.9268
-6779.9268
-6779.9268
-6779.9268
-6779.9268
-6779.9268
-6779.9397
-6779.9397
-6779.9397
-6779.9397
-6779.9397
-6779.9397
-6779.9397
-6779.9397
-6779.9525
-6779.9525
-6779.9525
-6779.9525
-6779.9525
-6779.9525
-6779.9525
-6779.9525
-6779.9654
-6779.9654
-6779.9654
-6779.9654
-6779.9654
-6779.9654
-6779.9654
-6779.9654
-6779.9783
-6779.9783
-6779.9783
-6779.9783
-6779.9783
-6779.9783
-6779.9783
-6779.9783
-6779.9912
-6779.9912
-6779.9912
-6779.9912
-6779.9912
-6779.9912
-6779.9912
-6779.9912
-6780.004
-6780.004
-6780.004
-6780.004
-6780.004
-6780.004
-6780.004
-6780.004
-6780.0169
-6780.0169
-6780.0169
-6780.0169
-6780.0169
-6780.0169
-6780.0169
-6780.0169
-6780.0298
-6780.0298
-6780.0298
-6780.0298
-6780.0298
-6780.0298
-6780.0298
-6780.0298
-6780.0427
-6780.0427
-6780.0427
-6780.0427
-6780.0427
-6780.0427
-6780.0427
-6780.0427
-6780.0555
-6780.0555
-6780.0555
-6780.0555
-6780.0555
-6780.0555
-6780.0555
-6780.0555
-6780.0684
-6780.0684
-6780.0684
-6780.0684
-6780.0684
-6780.0684
-6780.0684
-6780.0684
-6780.0813
-6780.0813
-6780.0813
-6780.0813
-6780.0813
-6780.0813
-6780.0813
-6780.0813
-6780.0941
-6780.0941
-6780.0941
-6780.0941
-6780.0941
-6780.0941
-6780.0941
-6780.0941
-6780.107
-6780.107
-6780.107
-6780.107
-6780.107
-6780.107
-6780.107
-6780.107
-6780.1199
-6780.1199
-6780.1199
-6780.1199
-6780.1199
-6780.1199
-6780.1199
-6780.1199
-6780.1327
-6780.1327
-6780.1327
-6780.1327
-6780.1327
-6780.1327
-6780.1327
-6780.1327
-6780.1456
-6780.1456
-6780.1456
-6780.1456
-6780.1456
-6780.1456
-6780.1456
-6780.1456
-6780.1585
-6780.1585
-6780.1585
-6780.1585
-6780.1585
-6780.1585
-6780.1585
-6780.1585
-6780.1713
-6780.1713
-6780.1713
-6780.1713
-6780.1713
-6780.1713
-6780.1713
-6780.1713
-6780.1842
-6780.1842
-6780.1842
-6780.1842
-6780.1842
-6780.1842
-6780.1842
-6780.1842
-6780.1971
-6780.1971
-6780.1971
-6780.1971
-6780.1971
-6780.1971
-6780.1971
-6780.1971
-6780.2099
-6780.2099
-6780.2099
-6780.2099
-6780.2099
-6780.2099
-6780.2099
-6780.2099
-6780.2228
-6780.2228
-6780.2228
-6780.2228
-6780.2228
-6780.2228
-6780.2228
-6780.2228
-6780.2357
-6780.2357
-6780.2356
-6780.2356
-6780.2356
-6780.2356
-6780.2357
-6780.2357
-6780.2485
-6780.2485
-6780.2485
-6780.2485
-6780.2485
-6780.2485
-6780.2485
-6780.2485
-6780.2614
-6780.2614
-6780.2614
-6780.2614
-6780.2614
-6780.2614
-6780.2614
-6780.2614
-6780.2742
-6780.2742
-6780.2742
-6780.2742
-6780.2742
-6780.2742
-6780.2742
-6780.2742
-6780.2871
-6780.2871
-6780.2871
-6780.2871
-6780.2871
-6780.2871
-6780.2871
-6780.2871
-6780.3
-6780.2999
-6780.2999
-6780.2999
-6780.2999
-6780.2999
-6780.3
-6780.3
-6780.3128
-6780.3128
-6780.3128
-6780.3128
-6780.3128
-6780.3128
-6780.3128
-6780.3128
-6780.3257
-6780.3257
-6780.3257
-6780.3257
-6780.3257
-6780.3257
-6780.3257
-6780.3257
-6780.3385
-6780.3385
-6780.3385
-6780.3385
-6780.3385
-6780.3385
-6780.3385
-6780.3385
-6780.3514
-6780.3514
-6780.3514
-6780.3514
-6780.3514
-6780.3514
-6780.3514
-6780.3514
-6780.3642
-6780.3642
-6780.3642
-6780.3642
-6780.3642
-6780.3642
-6780.3642
-6780.3642
-6780.3771
-6780.3771
-6780.3771
-6780.3771
-6780.3771
-6780.3771
-6780.3771
-6780.3771
-6780.3899
-6780.3899
-6780.3899
-6780.3899
-6780.3899
-6780.3899
-6780.3899
-6780.3899
-6780.4028
-6780.4028
-6780.4028
-6780.4028
-6780.4028
-6780.4028
-6780.4028
-6780.4028
-6780.4156
-6780.4156
-6780.4156
-6780.4156
-6780.4156
-6780.4156
-6780.4156
-6780.4156
-6780.4285
-6780.4285
-6780.4285
-6780.4284
-6780.4284
-6780.4285
-6780.4285
-6780.4285
-6780.4413
-6780.4413
-6780.4413
-6780.4413
-6780.4413
-6780.4413
-6780.4413
-6780.4413
-6780.4542
-6780.4541
-6780.4541
-6780.4541
-6780.4541
-6780.4541
-6780.4542
-6780.4542
-6780.467
-6780.467
-6780.467
-6780.467
-6780.467
-6780.467
-6780.467
-6780.467
-6780.4798
-6780.4798
-6780.4798
-6780.4798
-6780.4798
-6780.4798
-6780.4798
-6780.4799
-6780.4927
-6780.4927
-6780.4926
-6780.4926
-6780.4926
-6780.4926
-6780.4927
-6780.4927
-6780.5055
-6780.5055
-6780.5055
-6780.5055
-6780.5055
-6780.5055
-6780.5055
-6780.5055
-6780.5184
-6780.5183
-6780.5183
-6780.5183
-6780.5183
-6780.5183
-6780.5183
-6780.5184
-6780.5312
-6780.5312
-6780.5311
-6780.5311
-6780.5311
-6780.5311
-6780.5312
-6780.5312
-6780.544
-6780.544
-6780.544
-6780.5439
-6780.5439
-6780.544
-6780.544
-6780.5441
-6780.5569
-6780.5568
-6780.5568
-6780.5567
-6780.5567
-6780.5568
-6780.5568
-6780.5569
-6780.5697
-6780.5697
-6780.5696
-6780.5696
-6780.5696
-6780.5696
-6780.5697
-6780.5698
-6780.5826
-6780.5825
-6780.5824
-6780.5823
-6780.5823
-6780.5824
-6780.5825
-6780.5826
-6780.5955
-6780.5954
-6780.5952
-6780.5951
-6780.5951
-6780.5952
-6780.5954
-6780.5955
-6780.6085
-6780.6082
-6780.608
-6780.6079
-6780.6079
-6780.608
-6780.6082
-6780.6085
-6780.6214
-6780.6211
-6780.6208
-6780.6206
-6780.6206
-6780.6208
-6780.6211
-6780.6214
-6780.6344
-6780.6339
-6780.6335
-6780.6333
-6780.6333
-6780.6335
-6780.6339
-6780.6344
-6780.6475
-6780.6468
-6780.6462
-6780.6459
-6780.6459
-6780.6462
-6780.6468
-6780.6474
-6780.6605
-6780.6596
-6780.6589
-6780.6585
-6780.6585
-6780.6589
-6780.6596
-6780.6605
-6780.6737
-6780.6724
-6780.6714
-6780.671
-6780.671
-6780.6714
-6780.6724
-6780.6736
-6780.6868
-6780.6852
-6780.6839
-6780.6834
-6780.6834
-6780.6839
-6780.6851
-6780.6867
-6780.6999
-6780.6978
-6780.6962
-6780.6956
-6780.6956
-6780.6962
-6780.6978
-6780.6998
-6780.7129
-6780.7103
-6780.7084
-6780.7076
-6780.7076
-6780.7084
-6780.7102
-6780.7128
-6780.7257
-6780.7226
-6780.7203
-6780.7195
-6780.7195
-6780.7203
-6780.7225
-6780.7256
-6780.7382
-6780.7345
-6780.732
-6780.7311
-6780.7311
-6780.7319
-6780.7344
-6780.738
-6780.7502
-6780.746
-6780.7433
-6780.7425
-6780.7424
-6780.7432
-6780.7459
-6780.75
-6780.7616
-6780.757
-6780.7542
-6780.7536
-6780.7535
-6780.7541
-6780.7569
-6780.7614
-6780.7721
-6780.7673
-6780.7647
-6780.7645
-6780.7645
-6780.7646
-6780.7671
-6780.7719
-6780.7816
-6780.7767
-6780.7747
-6780.7752
-6780.7752
-6780.7746
-6780.7765
-6780.7814
-6780.7903
-6780.7857
-6780.7841
-6780.785
-6780.7849
-6780.784
-6780.7855
-6780.7901
-6780.7976
-6780.7953
-6780.7932
-6780.7923
-6780.7923
-6780.7931
-6780.7952
-6780.7975
)
;

boundaryField
{
    left
    {
        type            zeroGradient;
    }
    right
    {
        type            WKBC;
        index           0;
        value           uniform -6780.7985;
    }
    walls
    {
        type            zeroGradient;
    }
    frontAndBack
    {
        type            empty;
    }
}


// ************************************************************************* //
