/*--------------------------------*- C++ -*----------------------------------*\
| =========                 |                                                 |
| \\      /  F ield         | OpenFOAM: The Open Source CFD Toolbox           |
|  \\    /   O peration     | Version:  5.x                                   |
|   \\  /    A nd           | Web:      www.OpenFOAM.org                      |
|    \\/     M anipulation  |                                                 |
\*---------------------------------------------------------------------------*/
FoamFile
{
    version     2.0;
    format      ascii;
    class       volSymmTensorField;
    location    "9";
    object      sigma;
}
// * * * * * * * * * * * * * * * * * * * * * * * * * * * * * * * * * * * * * //

dimensions      [0 2 -2 0 0 0 0];

internalField   nonuniform List<symmTensor> 
1920
(
(0.003333568 0.017079142 0 -0.010406925 0 0)
(-0.00049902514 0.0069596708 0 0.0018051779 0 0)
(-0.0021864509 0.0041450067 0 0.0017186939 0 0)
(-0.0017835123 0.0012981445 0 0.0017680342 0 0)
(-0.0017834768 -0.0012981549 0 0.0017679979 0 0)
(-0.0021864567 -0.004144965 0 0.0017187012 0 0)
(-0.00049903089 -0.0069596684 0 0.0018051836 0 0)
(0.0033335666 -0.017079142 0 -0.010406921 0 0)
(0.0056648423 0.011983455 0 -0.0059588102 0 0)
(0.00066984207 0.0024844722 0 0.00056276516 0 0)
(-0.003465412 0.00099426513 0 0.0029572863 0 0)
(-0.003528322 0.00050252565 0 0.0032404085 0 0)
(-0.0035282992 -0.00050252793 0 0.0032403839 0 0)
(-0.0034654424 -0.00099409699 0 0.0029573198 0 0)
(0.00066984735 -0.0024844642 0 0.00056275574 0 0)
(0.0056648424 -0.011983457 0 -0.005958811 0 0)
(0.0052089366 0.010335142 0 -0.0068495326 0 0)
(0.0013061391 0.0015604201 0 -0.00071531449 0 0)
(-0.0029637986 0.00041469087 0 0.0026561082 0 0)
(-0.003800093 0.00014470813 0 0.0036165743 0 0)
(-0.0038001028 -0.00014470807 0 0.0036165863 0 0)
(-0.0029637409 -0.00041486667 0 0.0026560473 0 0)
(0.0013061471 -0.0015604323 0 -0.00071532105 0 0)
(0.0052089394 -0.010335144 0 -0.0068495373 0 0)
(0.0040754659 0.0095572907 0 -0.0056950152 0 0)
(0.0014805685 0.0020638841 0 -0.0012555134 0 0)
(-0.0022545748 0.000439888 0 0.0021122511 0 0)
(-0.0035083116 5.5170848e-05 0 0.0034417467 0 0)
(-0.0035082395 -5.5184721e-05 0 0.0034416771 0 0)
(-0.0022546485 -0.00043977864 0 0.0021123245 0 0)
(0.0014805736 -0.0020638703 0 -0.0012555176 0 0)
(0.0040754723 -0.0095572905 0 -0.0056950218 0 0)
(0.0031258359 0.0091877664 0 -0.0043650838 0 0)
(0.0013761584 0.0027901151 0 -0.0013347423 0 0)
(-0.001612557 0.00085964606 0 0.0015171532 0 0)
(-0.0029830112 0.00015373761 0 0.002943503 0 0)
(-0.0029831925 -0.00015373181 0 0.0029436847 0 0)
(-0.0016129949 -0.00085936827 0 0.0015175858 0 0)
(0.001376149 -0.0027901051 0 -0.0013347327 0 0)
(0.0031258411 -0.0091877603 0 -0.0043650889 0 0)
(0.0023913258 0.0089283899 0 -0.0033791485 0 0)
(0.0011750811 0.0035591685 0 -0.0012466381 0 0)
(-0.0011665715 0.0013138912 0 0.0010864024 0 0)
(-0.0022085306 0.00032846629 0 0.0021859471 0 0)
(-0.0022084664 -0.00032849841 0 0.0021858806 0 0)
(-0.0011660729 -0.0013143233 0 0.0010859056 0 0)
(0.0011751185 -0.0035591653 0 -0.001246676 0 0)
(0.0023913358 -0.0089283841 0 -0.0033791578 0 0)
(0.0016467321 0.0086670534 0 -0.0025010086 0 0)
(0.00090945068 0.0042452443 0 -0.0010675234 0 0)
(-0.0007696176 0.0018199493 0 0.00069504667 0 0)
(-0.0016865631 0.00049273827 0 0.0016757021 0 0)
(-0.0016865329 -0.00049275343 0 0.0016756725 0 0)
(-0.00076951387 -0.0018200229 0 0.00069494182 0 0)
(0.00090947177 -0.0042452385 0 -0.0010675437 0 0)
(0.0016467336 -0.0086670389 0 -0.0025010093 0 0)
(0.0011467899 0.0084962935 0 -0.001932576 0 0)
(0.00071155829 0.0046541292 0 -0.00092495375 0 0)
(-0.00049288501 0.0022654018 0 0.00041560456 0 0)
(-0.0012527324 0.00064352099 0 0.0012486094 0 0)
(-0.0012527962 -0.00064350525 0 0.001248672 0 0)
(-0.0004928822 -0.0022653766 0 0.00041560201 0 0)
(0.00071156206 -0.0046541453 0 -0.0009249595 0 0)
(0.0011467871 -0.0084962781 0 -0.0019325712 0 0)
(0.00078712027 0.0083798777 0 -0.0015313583 0 0)
(0.00051241805 0.0050368088 0 -0.00077016756 0 0)
(-0.00032389842 0.0025898453 0 0.00023868683 0 0)
(-0.0009301341 0.00076343967 0 0.00092751365 0 0)
(-0.00092993718 -0.0007635192 0 0.00092731993 0 0)
(-0.00032385082 -0.0025899 0 0.0002386392 0 0)
(0.00051245004 -0.0050367683 0 -0.00077019836 0 0)
(0.00078713871 -0.0083798624 0 -0.0015313756 0 0)
(0.00052899339 0.0082983024 0 -0.001247668 0 0)
(0.00037119654 0.0052786272 0 -0.00065891129 0 0)
(-0.00020590194 0.002852226 0 0.00011115677 0 0)
(-0.00063221188 0.00088098618 0 0.00062868845 0 0)
(-0.0006323841 -0.00088092607 0 0.00062885912 0 0)
(-0.00020592224 -0.0028521609 0 0.00011117864 0 0)
(0.00037119134 -0.0052786425 0 -0.00065890702 0 0)
(0.00052898653 -0.0082982795 0 -0.0012476584 0 0)
(0.00034787537 0.0082427923 0 -0.0010513299 0 0)
(0.00026294424 0.0054525551 0 -0.00057161899 0 0)
(-0.00012836966 0.0030482233 0 2.5187062e-05 0 0)
(-0.00043761169 0.0009616104 0 0.00043203024 0 0)
(-0.00043753602 -0.0009616509 0 0.00043195443 0 0)
(-0.00012833492 -0.0030482868 0 2.5150378e-05 0 0)
(0.00026296878 -0.0054525122 0 -0.00057164131 0 0)
(0.000347894 -0.0082427735 0 -0.0010513465 0 0)
(0.00022454204 0.0082059959 0 -0.00091909321 0 0)
(0.00018104497 0.0055767379 0 -0.00050402928 0 0)
(-7.857481e-05 0.0031895696 0 -3.125422e-05 0 0)
(-0.00029045213 0.001025348 0 0.00028272456 0 0)
(-0.00029044518 -0.0010253574 0 0.00028271716 0 0)
(-7.8595057e-05 -0.0031895127 0 -3.1232329e-05 0 0)
(0.00018103262 -0.0055767484 0 -0.00050401756 0 0)
(0.00022453283 -0.0082059696 0 -0.00091908081 0 0)
(0.00014257709 0.0081821294 0 -0.00083198234 0 0)
(0.00012186223 0.0056617766 0 -0.00045429516 0 0)
(-4.7114297e-05 0.0032891645 0 -6.7687298e-05 0 0)
(-0.00019083518 0.0010699368 0 0.00018129201 0 0)
(-0.00019099401 -0.0010698886 0 0.00018145083 0 0)
(-4.7099559e-05 -0.0032892166 0 -6.7703979e-05 0 0)
(0.00012187622 -0.0056617405 0 -0.00045430686 0 0)
(0.0001425901 -0.0081821085 0 -0.00083199241 0 0)
(8.8929769e-05 0.0081668836 0 -0.00077539126 0 0)
(8.0425788e-05 0.0057184206 0 -0.00041897732 0 0)
(-2.753773e-05 0.0033579163 0 -9.0824892e-05 0 0)
(-0.00012314753 0.0011012351 0 0.00011220491 0 0)
(-0.00012295585 -0.0011013249 0 0.00011201242 0 0)
(-2.7556002e-05 -0.0033578789 0 -9.0805527e-05 0 0)
(8.0409667e-05 -0.0057184263 0 -0.00041896115 0 0)
(8.8921492e-05 -0.0081668584 0 -0.00077537961 0 0)
(5.4363102e-05 0.0081573207 0 -0.00073918389 0 0)
(5.2096373e-05 0.005755436 0 -0.00039452977 0 0)
(-1.5625225e-05 0.003404393 0 -0.00010520324 0 0)
(-7.9118191e-05 0.0011222057 0 6.7167249e-05 0 0)
(-7.9335364e-05 -0.0011221324 0 6.7384838e-05 0 0)
(-1.5624617e-05 -0.0034044303 0 -0.00010520545 0 0)
(5.2100276e-05 -0.0057554112 0 -0.00039453174 0 0)
(5.4369508e-05 -0.0081573002 0 -0.00073918704 0 0)
(3.2482306e-05 0.0081514516 0 -0.0007164192 0 0)
(3.3108125e-05 0.0057791905 0 -0.00037796595 0 0)
(-8.4905423e-06 0.0034353484 0 -0.00011399351 0 0)
(-4.9660378e-05 0.0011365487 0 3.7008409e-05 0 0)
(-4.8985714e-05 -0.0011368667 0 3.63297e-05 0 0)
(-8.5056577e-06 -0.0034353306 0 -0.00011397799 0 0)
(3.3092698e-05 -0.0057791923 0 -0.00037795005 0 0)
(3.2475115e-05 -0.0081514295 0 -0.00071640874 0 0)
(1.885567e-05 0.0081479361 0 -0.00070234278 0 0)
(2.0595159e-05 0.0057942111 0 -0.00036693877 0 0)
(-4.3541309e-06 0.0034555205 0 -0.00011921101 0 0)
(-3.0027188e-05 0.0011463113 0 1.690272e-05 0 0)
(-3.0849541e-05 -0.0011459573 0 1.7729228e-05 0 0)
(-4.3604732e-06 -0.0034555445 0 -0.00011920589 0 0)
(2.0592251e-05 -0.005794197 0 -0.00036693447 0 0)
(1.8856855e-05 -0.0081479177 0 -0.00070234084 0 0)
(1.0565558e-05 0.0081459013 0 -0.00069384466 0 0)
(1.2525085e-05 0.0058034951 0 -0.00035975923 0 0)
(-2.0136912e-06 0.003468503 0 -0.00012224197 0 0)
(-1.8361092e-05 0.0011522868 0 4.9331546e-06 0 0)
(-1.7798948e-05 -0.0011525678 0 4.367118e-06 0 0)
(-2.0251253e-06 -0.0034684997 0 -0.00012223062 0 0)
(1.251278e-05 -0.0058034945 0 -0.00035974635 0 0)
(1.0559559e-05 -0.008145883 0 -0.0006938357 0 0)
(5.6193142e-06 0.0081447706 0 -0.00068881874 0 0)
(7.3919749e-06 0.0058091511 0 -0.00035515103 0 0)
(-7.5905638e-07 0.0034766418 0 -0.00012392349 0 0)
(-1.0316231e-05 0.0011564668 0 -3.3094833e-06 0 0)
(-1.0746802e-05 -0.0011562811 0 -2.8766496e-06 0 0)
(-7.6702641e-07 -0.0034766558 0 -0.00012391647 0 0)
(7.3859274e-06 -0.0058091444 0 -0.00035514407 0 0)
(5.6176205e-06 -0.0081447549 0 -0.0006888143 0 0)
(2.841642e-06 0.0081441964 0 -0.00068602813 0 0)
(4.2200289e-06 0.0058124837 0 -0.00035227593 0 0)
(-1.2261562e-07 0.0034816809 0 -0.00012481972 0 0)
(-5.9105479e-06 0.0011588415 0 -7.8340657e-06 0 0)
(-5.4743697e-06 -0.0011590724 0 -8.2737133e-06 0 0)
(-1.3071945e-07 -0.0034816856 0 -0.00012481206 0 0)
(4.211419e-06 -0.0058124817 0 -0.0003522668 0 0)
(2.8372732e-06 -0.0081441815 0 -0.00068602124 0 0)
(1.1959731e-06 0.0081439102 0 -0.00068439617 0 0)
(2.2832117e-06 0.0058144127 0 -0.00035050554 0 0)
(1.6297072e-07 0.0034846946 0 -0.0001252552 0 0)
(-2.74456e-06 0.0011605676 0 -1.1075749e-05 0 0)
(-3.2032073e-06 -0.0011603522 0 -1.0613939e-05 0 0)
(1.5591482e-07 -0.0034847024 0 -0.00012524889 0 0)
(2.2764211e-06 -0.0058144101 0 -0.00035049819 0 0)
(1.1930255e-06 -0.008143897 0 -0.00068439089 0 0)
(3.5920467e-07 0.0081438074 0 -0.00068358523 0 0)
(1.1538173e-06 0.0058154671 0 -0.00034946091 0 0)
(2.6290042e-07 0.003486464 0 -0.00012544093 0 0)
(-1.5226501e-06 0.0011612883 0 -1.2336747e-05 0 0)
(-1.2690098e-06 -0.0011614362 0 -1.2592996e-05 0 0)
(2.5701097e-07 -0.0034864714 0 -0.0001254356 0 0)
(1.1481358e-06 -0.0058154645 0 -0.0003494548 0 0)
(3.5627574e-07 -0.0081437953 0 -0.0006835802 0 0)
(-5.3905904e-08 0.0081437977 0 -0.00068319815 0 0)
(5.0243792e-07 0.0058160226 0 -0.00034885369 0 0)
(2.7137559e-07 0.0034874512 0 -0.00012549319 0 0)
(-4.326342e-07 0.0011619266 0 -1.3452442e-05 0 0)
(-4.6253904e-07 -0.0011619252 0 -1.3422541e-05 0 0)
(2.6584183e-07 -0.0034874558 0 -0.00012548829 0 0)
(4.9614449e-07 -0.0058160215 0 -0.00034884703 0 0)
(-5.7211959e-08 -0.0081437867 0 -0.00068319293 0 0)
(-2.2935428e-07 0.0081438306 0 -0.0006830467 0 0)
(1.5950046e-07 0.0058162809 0 -0.00034852685 0 0)
(2.3807791e-07 0.0034879791 0 -0.00012548245 0 0)
(-4.0312602e-08 0.0011621841 0 -1.3856241e-05 0 0)
(-8.684741e-08 -0.0011621697 0 -1.3809858e-05 0 0)
(2.3330086e-07 -0.0034879862 0 -0.00012547821 0 0)
(1.5560344e-07 -0.0058162785 0 -0.00034852262 0 0)
(-2.3205278e-07 -0.0081438205 0 -0.00068304225 0 0)
(-2.7196341e-07 0.0081438766 0 -0.00068302301 0 0)
(-1.1332805e-08 0.0058163851 0 -0.00034836223 0 0)
(1.942046e-07 0.0034882332 0 -0.00012544614 0 0)
(1.6573048e-07 0.0011623314 0 -1.4068555e-05 0 0)
(1.5286535e-07 -0.0011623348 0 -1.4055911e-05 0 0)
(1.9001802e-07 -0.0034882368 0 -0.00012544246 0 0)
(-1.6659397e-08 -0.0058163841 0 -0.00034835661 0 0)
(-2.7472729e-07 -0.0081438672 0 -0.00068301871 0 0)
(-2.5592296e-07 0.0081439245 0 -0.00068305499 0 0)
(-9.5921856e-08 0.0058164133 0 -0.00034827523 0 0)
(1.5271377e-07 0.003488336 0 -0.00012540706 0 0)
(2.1527336e-07 0.0011623852 0 -1.4120065e-05 0 0)
(1.9705021e-07 -0.001162381 0 -1.4102028e-05 0 0)
(1.4833118e-07 -0.0034883412 0 -0.0001254031 0 0)
(-9.9855345e-08 -0.005816412 0 -0.00034827104 0 0)
(-2.5848445e-07 -0.0081439159 0 -0.00068305097 0 0)
(-2.1696379e-07 0.0081439623 0 -0.00068310459 0 0)
(-1.1509684e-07 0.0058163964 0 -0.00034825403 0 0)
(1.1269171e-07 0.0034883691 0 -0.00012536487 0 0)
(2.1600442e-07 0.0011624015 0 -1.4121517e-05 0 0)
(2.1672142e-07 -0.0011624106 0 -1.4122482e-05 0 0)
(1.0861907e-07 -0.0034883729 0 -0.00012536124 0 0)
(-1.1977308e-07 -0.005816395 0 -0.00034824898 0 0)
(-2.1904056e-07 -0.0081439545 0 -0.00068310125 0 0)
(-1.7077723e-07 0.0081439966 0 -0.00068315945 0 0)
(-1.116482e-07 0.0058163627 0 -0.00034825359 0 0)
(8.019103e-08 0.0034883542 0 -0.00012533026 0 0)
(1.96092e-07 0.0011624073 0 -1.4101193e-05 0 0)
(1.9538633e-07 -0.0011624132 0 -1.4100789e-05 0 0)
(7.6707807e-08 -0.0034883582 0 -0.00012532707 0 0)
(-1.1526667e-07 -0.0058163618 0 -0.00034824972 0 0)
(-1.7265186e-07 -0.0081439898 0 -0.00068315639 0 0)
(-1.309254e-07 0.0081440203 0 -0.0006832047 0 0)
(-9.3741706e-08 0.0058163306 0 -0.00034826823 0 0)
(5.6266587e-08 0.0034883252 0 -0.00012530307 0 0)
(1.6546956e-07 0.0011623977 0 -1.4070084e-05 0 0)
(1.63786e-07 -0.0011624049 0 -1.4068567e-05 0 0)
(5.2844701e-08 -0.0034883285 0 -0.00012529999 0 0)
(-9.7676661e-08 -0.0058163304 0 -0.00034826402 0 0)
(-1.3289132e-07 -0.0081440137 0 -0.00068320166 0 0)
(-9.7851964e-08 0.0081440397 0 -0.00068324237 0 0)
(-7.5880492e-08 0.0058163011 0 -0.00034828222 0 0)
(3.8083696e-08 0.0034882913 0 -0.00012528276 0 0)
(1.2783753e-07 0.0011623859 0 -1.4031508e-05 0 0)
(1.265016e-07 -0.0011623914 0 -1.403042e-05 0 0)
(3.5234402e-08 -0.0034882953 0 -0.00012528019 0 0)
(-7.9080606e-08 -0.0058163004 0 -0.00034827885 0 0)
(-9.9513028e-08 -0.0081440341 0 -0.00068323972 0 0)
(-7.0078325e-08 0.0081440533 0 -0.00068327253 0 0)
(-5.8485066e-08 0.005816277 0 -0.00034829794 0 0)
(2.6431568e-08 0.0034882596 0 -0.00012526859 0 0)
(1.0108838e-07 0.0011623753 0 -1.4004259e-05 0 0)
(9.8443076e-08 -0.0011623799 0 -1.4001742e-05 0 0)
(2.3349675e-08 -0.0034882621 0 -0.0001252658 0 0)
(-6.1871273e-08 -0.0058162766 0 -0.00034829432 0 0)
(-7.1705121e-08 -0.0081440479 0 -0.00068327 0 0)
(-5.0659536e-08 0.008144064 0 -0.00068329434 0 0)
(-4.3942619e-08 0.0058162575 0 -0.00034830987 0 0)
(1.803042e-08 0.0034882369 0 -0.00012525878 0 0)
(7.1399911e-08 0.0011623622 0 -1.3973776e-05 0 0)
(7.0072862e-08 -0.0011623665 0 -1.3972648e-05 0 0)
(1.515181e-08 -0.0034882397 0 -0.00012525613 0 0)
(-4.6781048e-08 -0.0058162572 0 -0.00034830689 0 0)
(-5.2108175e-08 -0.0081440596 0 -0.00068329208 0 0)
(-3.4985087e-08 0.0081440707 0 -0.00068331091 0 0)
(-3.2424027e-08 0.0058162427 0 -0.00034832083 0 0)
(1.3651554e-08 0.0034882168 0 -0.00012525252 0 0)
(5.3399465e-08 0.001162355 0 -1.3955507e-05 0 0)
(5.2124379e-08 -0.0011623586 0 -1.3954342e-05 0 0)
(1.1138275e-08 -0.003488219 0 -0.00012525024 0 0)
(-3.5210964e-08 -0.0058162424 0 -0.00034831784 0 0)
(-3.6377128e-08 -0.0081440664 0 -0.00068330876 0 0)
(-2.4888222e-08 0.0081440763 0 -0.00068332226 0 0)
(-2.3387848e-08 0.0058162318 0 -0.00034832829 0 0)
(8.8495732e-09 0.0034882025 0 -0.00012524721 0 0)
(3.6455446e-08 0.0011623466 0 -1.3938047e-05 0 0)
(3.5332846e-08 -0.0011623494 0 -1.3937066e-05 0 0)
(6.4594704e-09 -0.0034882047 0 -0.00012524499 0 0)
(-2.5768699e-08 -0.0058162317 0 -0.00034832577 0 0)
(-2.612218e-08 -0.0081440728 0 -0.00068332035 0 0)
(-1.6993968e-08 0.0081440796 0 -0.00068333041 0 0)
(-1.7064671e-08 0.0058162236 0 -0.00034833459 0 0)
(6.6583452e-09 0.0034881905 0 -0.00012524386 0 0)
(2.6877987e-08 0.0011623432 0 -1.3928396e-05 0 0)
(2.6246201e-08 -0.001162346 0 -1.3927854e-05 0 0)
(4.7051397e-09 -0.0034881923 0 -0.00012524207 0 0)
(-1.9298677e-08 -0.0058162235 0 -0.00034833219 0 0)
(-1.817485e-08 -0.0081440762 0 -0.0006833286 0 0)
(-1.2145572e-08 0.0081440824 0 -0.00068333599 0 0)
(-1.18439e-08 0.0058162177 0 -0.00034833874 0 0)
(4.3931633e-09 0.0034881826 0 -0.00012524149 0 0)
(1.9002545e-08 0.0011623389 0 -1.3920202e-05 0 0)
(1.8100717e-08 -0.0011623409 0 -1.3919405e-05 0 0)
(2.5784071e-09 -0.0034881844 0 -0.0001252398 0 0)
(-1.377627e-08 -0.0058162179 0 -0.00034833668 0 0)
(-1.319509e-08 -0.0081440795 0 -0.00068333438 0 0)
(-8.4477004e-09 0.0081440841 0 -0.00068333968 0 0)
(-8.9809931e-09 0.0058162135 0 -0.00034834187 0 0)
(3.5042231e-09 0.0034881759 0 -0.00012523982 0 0)
(1.4105432e-08 0.0011623373 0 -1.3915333e-05 0 0)
(1.3751964e-08 -0.0011623397 0 -1.3915053e-05 0 0)
(2.0278089e-09 -0.0034881776 0 -0.00012523847 0 0)
(-1.072614e-08 -0.0058162136 0 -0.00034833998 0 0)
(-9.4327331e-09 -0.0081440814 0 -0.00068333817 0 0)
(-6.3447116e-09 0.0081440855 0 -0.0006833423 0 0)
(-6.0766384e-09 0.0058162105 0 -0.00034834392 0 0)
(2.3675696e-09 0.0034881716 0 -0.00012523877 0 0)
(1.0623428e-08 0.0011623353 0 -1.3911631e-05 0 0)
(1.0073931e-08 -0.0011623371 0 -1.3911172e-05 0 0)
(1.0477732e-09 -0.0034881732 0 -0.00012523756 0 0)
(-7.5733291e-09 -0.0058162108 0 -0.00034834231 0 0)
(-7.2112933e-09 -0.0081440833 0 -0.00068334097 0 0)
(-4.6297138e-09 0.0081440865 0 -0.00068334389 0 0)
(-5.1154867e-09 0.0058162084 0 -0.00034834531 0 0)
(2.1574159e-09 0.0034881678 0 -0.00012523796 0 0)
(8.2425212e-09 0.0011623344 0 -1.390933e-05 0 0)
(8.0599313e-09 -0.0011623367 0 -1.3909211e-05 0 0)
(1.0945802e-09 -0.0034881692 0 -0.000125237 0 0)
(-6.4273884e-09 -0.0058162086 0 -0.00034834388 0 0)
(-5.4261044e-09 -0.0081440845 0 -0.00068334266 0 0)
(-3.8731816e-09 0.0081440874 0 -0.00068334508 0 0)
(-3.4622324e-09 0.0058162069 0 -0.00034834621 0 0)
(1.4754097e-09 0.0034881657 0 -0.00012523749 0 0)
(6.7113226e-09 0.0011623333 0 -1.3907624e-05 0 0)
(6.3991496e-09 -0.001162335 0 -1.3907392e-05 0 0)
(5.6441575e-10 -0.0034881671 0 -0.00012523667 0 0)
(-4.5694839e-09 -0.0058162071 0 -0.00034834501 0 0)
(-4.5639059e-09 -0.0081440856 0 -0.000683344 0 0)
(-2.993593e-09 0.0081440881 0 -0.00068334578 0 0)
(-3.410986e-09 0.0058162058 0 -0.00034834677 0 0)
(1.575609e-09 0.0034881633 0 -0.00012523707 0 0)
(5.554069e-09 0.0011623328 0 -1.3906573e-05 0 0)
(5.4517782e-09 -0.0011623348 0 -1.3906524e-05 0 0)
(8.5859937e-10 -0.0034881645 0 -0.00012523644 0 0)
(-4.3582898e-09 -0.005816206 0 -0.00034834573 0 0)
(-3.6183176e-09 -0.0081440865 0 -0.0006833448 0 0)
(-2.8363049e-09 0.0081440887 0 -0.00068334633 0 0)
(-2.3480037e-09 0.0058162049 0 -0.00034834713 0 0)
(1.0563458e-09 0.0034881624 0 -0.00012523684 0 0)
(4.906509e-09 0.0011623321 0 -1.3905769e-05 0 0)
(4.7258867e-09 -0.0011623335 0 -1.3905662e-05 0 0)
(4.6958138e-10 -0.0034881636 0 -0.00012523633 0 0)
(-3.1351659e-09 -0.0058162052 0 -0.00034834627 0 0)
(-3.3734354e-09 -0.0081440873 0 -0.00068334547 0 0)
(-2.290027e-09 0.0081440893 0 -0.00068334668 0 0)
(-2.6861518e-09 0.0058162043 0 -0.00034834735 0 0)
(1.2859579e-09 0.0034881607 0 -0.00012523659 0 0)
(4.2893152e-09 0.0011623318 0 -1.3905272e-05 0 0)
(4.2378376e-09 -0.0011623336 0 -1.3905264e-05 0 0)
(8.371063e-10 -0.0034881616 0 -0.00012523622 0 0)
(-3.3454188e-09 -0.0058162045 0 -0.00034834662 0 0)
(-2.7689404e-09 -0.008144088 0 -0.0006833459 0 0)
(-2.3803031e-09 0.0081440898 0 -0.00068334696 0 0)
(-1.8716744e-09 0.0058162038 0 -0.00034834748 0 0)
(8.2623749e-10 0.0034881603 0 -0.00012523645 0 0)
(4.0317477e-09 0.0011623312 0 -1.3904867e-05 0 0)
(3.9306573e-09 -0.0011623325 0 -1.3904833e-05 0 0)
(4.7789557e-10 -0.0034881613 0 -0.00012523617 0 0)
(-2.4122218e-09 -0.0058162039 0 -0.00034834688 0 0)
(-2.7898249e-09 -0.0081440886 0 -0.00068334628 0 0)
(-1.9603335e-09 0.0081440903 0 -0.00068334717 0 0)
(-2.3625248e-09 0.0058162033 0 -0.00034834757 0 0)
(1.1122104e-09 0.0034881589 0 -0.00012523628 0 0)
(3.6377371e-09 0.0011623311 0 -1.39046e-05 0 0)
(3.6251171e-09 -0.0011623326 0 -1.3904623e-05 0 0)
(8.5276864e-10 -0.0034881597 0 -0.0001252361 0 0)
(-2.8091151e-09 -0.0058162035 0 -0.00034834707 0 0)
(-2.3210868e-09 -0.0081440892 0 -0.00068334655 0 0)
(-2.1466467e-09 0.0081440908 0 -0.00068334734 0 0)
(-1.6404586e-09 0.0058162029 0 -0.00034834763 0 0)
(6.7913248e-10 0.0034881588 0 -0.0001252362 0 0)
(3.5454994e-09 0.0011623306 0 -1.3904364e-05 0 0)
(3.4946416e-09 -0.0011623317 0 -1.3904376e-05 0 0)
(4.9033685e-10 -0.0034881596 0 -0.00012523607 0 0)
(-2.0034152e-09 -0.005816203 0 -0.00034834722 0 0)
(-2.4547059e-09 -0.0081440898 0 -0.00068334681 0 0)
(-1.7702884e-09 0.0081440913 0 -0.0006833475 0 0)
(-2.1847905e-09 0.0058162026 0 -0.00034834767 0 0)
(9.9414279e-10 0.0034881576 0 -0.00012523607 0 0)
(3.239145e-09 0.0011623304 0 -1.390419e-05 0 0)
(3.2526536e-09 -0.0011623318 0 -1.3904232e-05 0 0)
(8.5468218e-10 -0.0034881582 0 -0.000125236 0 0)
(-2.4852592e-09 -0.0058162026 0 -0.00034834733 0 0)
(-2.0392533e-09 -0.0081440903 0 -0.00068334702 0 0)
(-1.9918956e-09 0.0081440917 0 -0.00068334764 0 0)
(-1.4905137e-09 0.0058162022 0 -0.00034834771 0 0)
(5.76661e-10 0.0034881575 0 -0.00012523601 0 0)
(3.2159684e-09 0.00116233 0 -1.3904025e-05 0 0)
(3.1936365e-09 -0.001162331 0 -1.3904063e-05 0 0)
(4.8276263e-10 -0.0034881581 0 -0.00012523597 0 0)
(-1.7350152e-09 -0.0058162023 0 -0.00034834743 0 0)
(-2.2228001e-09 -0.0081440908 0 -0.00068334722 0 0)
(-1.6283227e-09 0.0081440922 0 -0.00068334777 0 0)
(-2.0497059e-09 0.005816202 0 -0.00034834775 0 0)
(9.096055e-10 0.0034881564 0 -0.00012523591 0 0)
(2.9433673e-09 0.0011623299 0 -1.3903888e-05 0 0)
(2.9692573e-09 -0.0011623311 0 -1.3903937e-05 0 0)
(8.3536809e-10 -0.0034881569 0 -0.0001252359 0 0)
(-2.2572672e-09 -0.0058162019 0 -0.00034834751 0 0)
(-1.8289556e-09 -0.0081440913 0 -0.00068334739 0 0)
(-1.8628084e-09 0.0081440925 0 -0.00068334789 0 0)
(-1.3600437e-09 0.0058162017 0 -0.00034834779 0 0)
(5.0288044e-10 0.0034881563 0 -0.00012523586 0 0)
(2.9504358e-09 0.0011623295 0 -1.3903755e-05 0 0)
(2.9398894e-09 -0.0011623305 0 -1.3903802e-05 0 0)
(4.557358e-10 -0.0034881569 0 -0.00012523587 0 0)
(-1.5322466e-09 -0.0058162016 0 -0.00034834759 0 0)
(-2.0376589e-09 -0.0081440917 0 -0.00068334755 0 0)
(-1.5018596e-09 0.008144093 0 -0.00068334801 0 0)
(-1.9214816e-09 0.0058162014 0 -0.00034834783 0 0)
(8.4797445e-10 0.0034881554 0 -0.00012523578 0 0)
(2.6917711e-09 0.0011623294 0 -1.3903634e-05 0 0)
(2.7183849e-09 -0.0011623305 0 -1.390368e-05 0 0)
(7.9976082e-10 -0.0034881558 0 -0.0001252358 0 0)
(-2.0757141e-09 -0.0058162013 0 -0.00034834766 0 0)
(-1.6538268e-09 -0.0081440922 0 -0.00068334771 0 0)
(-1.7418858e-09 0.0081440933 0 -0.00068334812 0 0)
(-1.2303394e-09 0.0058162011 0 -0.00034834787 0 0)
(4.4884023e-10 0.0034881553 0 -0.00012523575 0 0)
(2.7142007e-09 0.001162329 0 -1.390352e-05 0 0)
(2.7036088e-09 -0.00116233 0 -1.3903564e-05 0 0)
(4.1572989e-10 -0.0034881558 0 -0.00012523577 0 0)
(-1.363591e-09 -0.005816201 0 -0.00034834772 0 0)
(-1.8778915e-09 -0.0081440926 0 -0.00068334785 0 0)
(-1.3810386e-09 0.0081440938 0 -0.00068334824 0 0)
(-1.7915645e-09 0.0058162009 0 -0.00034834792 0 0)
(8.0215273e-10 0.0034881544 0 -0.00012523569 0 0)
(2.4628839e-09 0.0011623289 0 -1.3903408e-05 0 0)
(2.4823068e-09 -0.0011623299 0 -1.3903443e-05 0 0)
(7.546374e-10 -0.0034881548 0 -0.0001252357 0 0)
(-1.9198892e-09 -0.0058162007 0 -0.00034834778 0 0)
(-1.4999015e-09 -0.008144093 0 -0.00068334799 0 0)
(-1.624696e-09 0.0081440941 0 -0.00068334834 0 0)
(-1.0989927e-09 0.0058162006 0 -0.00034834797 0 0)
(4.0807956e-10 0.0034881544 0 -0.00012523567 0 0)
(2.4951246e-09 0.0011623286 0 -1.3903305e-05 0 0)
(2.4772366e-09 -0.0011623295 0 -1.390334e-05 0 0)
(3.6911257e-10 -0.0034881548 0 -0.00012523567 0 0)
(-1.215517e-09 -0.0058162004 0 -0.00034834784 0 0)
(-1.7350846e-09 -0.0081440934 0 -0.00068334812 0 0)
(-1.2639379e-09 0.0081440945 0 -0.00068334846 0 0)
(-1.6608278e-09 0.0058162004 0 -0.00034834802 0 0)
(7.6661448e-10 0.0034881535 0 -0.00012523561 0 0)
(2.2492961e-09 0.0011623285 0 -1.39032e-05 0 0)
(2.2573421e-09 -0.0011623294 0 -1.3903221e-05 0 0)
(7.0559751e-10 -0.0034881539 0 -0.00012523561 0 0)
(-1.7805915e-09 -0.0058162002 0 -0.0003483479 0 0)
(-1.3613169e-09 -0.0081440938 0 -0.00068334824 0 0)
(-1.5110208e-09 0.0081440948 0 -0.00068334855 0 0)
(-9.6854621e-10 0.0058162001 0 -0.00034834807 0 0)
(3.7561159e-10 0.0034881535 0 -0.0001252356 0 0)
(2.2892236e-09 0.0011623282 0 -1.3903107e-05 0 0)
(2.2605332e-09 -0.0011623291 0 -1.390313e-05 0 0)
(3.2065859e-10 -0.0034881539 0 -0.00012523558 0 0)
(-1.0816704e-09 -0.0058161999 0 -0.00034834795 0 0)
(-1.6053694e-09 -0.0081440941 0 -0.00068334835 0 0)
(-1.15096e-09 0.0081440952 0 -0.00068334866 0 0)
(-1.5324287e-09 0.0058161999 0 -0.00034834813 0 0)
(7.3711668e-10 0.0034881527 0 -0.00012523555 0 0)
(2.0485444e-09 0.0011623281 0 -1.3903009e-05 0 0)
(2.0440097e-09 -0.001162329 0 -1.3903015e-05 0 0)
(6.5652171e-10 -0.003488153 0 -0.00012523553 0 0)
(-1.6533126e-09 -0.0058161997 0 -0.000348348 0 0)
(-1.2350468e-09 -0.0081440945 0 -0.00068334847 0 0)
(-1.401659e-09 0.0081440954 0 -0.00068334875 0 0)
(-8.4220341e-10 0.0058161997 0 -0.00034834818 0 0)
(3.4776196e-10 0.0034881527 0 -0.00012523554 0 0)
(2.0952335e-09 0.0011623278 0 -1.3902924e-05 0 0)
(2.0549526e-09 -0.0011623287 0 -1.3902934e-05 0 0)
(2.7348663e-10 -0.003488153 0 -0.00012523551 0 0)
(-9.587577e-10 -0.0058161995 0 -0.00034834806 0 0)
(-1.486488e-09 -0.0081440948 0 -0.00068334857 0 0)
(-1.0429249e-09 0.0081440958 0 -0.00068334885 0 0)
(-1.4092924e-09 0.0058161995 0 -0.00034834824 0 0)
(7.1064324e-10 0.003488152 0 -0.0001252355 0 0)
(1.8597767e-09 0.0011623277 0 -1.3902832e-05 0 0)
(1.8434909e-09 -0.0011623286 0 -1.3902824e-05 0 0)
(6.0980042e-10 -0.0034881522 0 -0.00012523546 0 0)
(-1.5356045e-09 -0.0058161993 0 -0.00034834811 0 0)
(-1.1191298e-09 -0.0081440951 0 -0.00068334868 0 0)
(-1.2974157e-09 0.008144096 0 -0.00068334893 0 0)
(-7.2244364e-10 0.0058161993 0 -0.00034834829 0 0)
(3.2204234e-10 0.0034881519 0 -0.0001252355 0 0)
(1.9127184e-09 0.0011623275 0 -1.3902755e-05 0 0)
(1.8618086e-09 -0.0011623284 0 -1.3902753e-05 0 0)
(2.2941388e-10 -0.0034881523 0 -0.00012523544 0 0)
(-8.4487396e-10 -0.0058161991 0 -0.00034834816 0 0)
(-1.3768356e-09 -0.0081440954 0 -0.00068334877 0 0)
(-9.4050311e-10 0.0081440963 0 -0.00068334902 0 0)
(-1.2934143e-09 0.0058161991 0 -0.00034834834 0 0)
(6.8525314e-10 0.0034881513 0 -0.00012523546 0 0)
(1.6826276e-09 0.0011623274 0 -1.390267e-05 0 0)
(1.6565931e-09 -0.0011623282 0 -1.3902649e-05 0 0)
(5.6672146e-10 -0.0034881516 0 -0.0001252354 0 0)
(-1.4260063e-09 -0.0058161989 0 -0.00034834821 0 0)
(-1.0121058e-09 -0.0081440957 0 -0.00068334887 0 0)
(-1.1988494e-09 0.0081440965 0 -0.0006833491 0 0)
(-6.1077056e-10 0.0058161989 0 -0.00034834839 0 0)
(2.9694062e-10 0.0034881513 0 -0.00012523546 0 0)
(1.7414656e-09 0.0011623272 0 -1.39026e-05 0 0)
(1.6818479e-09 -0.0011623281 0 -1.3902587e-05 0 0)
(1.8932362e-10 -0.0034881516 0 -0.00012523538 0 0)
(-7.3883671e-10 -0.0058161987 0 -0.00034834826 0 0)
(-1.2751888e-09 -0.0081440959 0 -0.00068334895 0 0)
(-8.4410484e-10 0.0081440968 0 -0.00068334919 0 0)
(-1.185911e-09 0.0058161988 0 -0.00034834844 0 0)
(6.5985684e-10 0.0034881507 0 -0.00012523543 0 0)
(1.5168635e-09 0.0011623271 0 -1.390252e-05 0 0)
(1.4835921e-09 -0.0011623279 0 -1.390249e-05 0 0)
(5.2780881e-10 -0.0034881509 0 -0.00012523535 0 0)
(-1.323612e-09 -0.0058161985 0 -0.0003483483 0 0)
(-9.1285252e-10 -0.0081440963 0 -0.00068334905 0 0)
(-1.1062636e-09 0.008144097 0 -0.00068334926 0 0)
(-5.0795005e-10 0.0058161986 0 -0.00034834848 0 0)
(2.7168122e-10 0.0034881507 0 -0.00012523542 0 0)
(1.5813064e-09 0.001162327 0 -1.3902457e-05 0 0)
(1.5152821e-09 -0.0011623278 0 -1.3902436e-05 0 0)
(1.5347155e-10 -0.003488151 0 -0.00012523533 0 0)
(-6.3990395e-10 -0.0058161984 0 -0.00034834835 0 0)
(-1.1806241e-09 -0.0081440964 0 -0.00068334912 0 0)
(-7.5391062e-10 0.0081440973 0 -0.00068334934 0 0)
(-1.0872888e-09 0.0058161984 0 -0.00034834853 0 0)
(6.3398271e-10 0.0034881501 0 -0.0001252354 0 0)
(1.362272e-09 0.0011623269 0 -1.3902383e-05 0 0)
(1.3243291e-09 -0.0011623276 0 -1.3902346e-05 0 0)
(4.9309381e-10 -0.0034881504 0 -0.0001252353 0 0)
(-1.2278685e-09 -0.0058161982 0 -0.0003483484 0 0)
(-8.2053468e-10 -0.0081440967 0 -0.00068334921 0 0)
(-1.01976e-09 0.0081440974 0 -0.0006833494 0 0)
(-4.1421455e-10 0.0058161982 0 -0.00034834857 0 0)
(2.459968e-10 0.0034881502 0 -0.00012523539 0 0)
(1.4320564e-09 0.0011623268 0 -1.3902325e-05 0 0)
(1.3619224e-09 -0.0011623275 0 -1.3902299e-05 0 0)
(1.2172447e-10 -0.0034881504 0 -0.0001252353 0 0)
(-5.4761735e-10 -0.005816198 0 -0.00034834844 0 0)
(-1.0924607e-09 -0.0081440969 0 -0.00068334928 0 0)
(-6.6992378e-10 0.0081440977 0 -0.00068334948 0 0)
(-9.9754514e-10 0.0058161981 0 -0.00034834862 0 0)
(6.0756506e-10 0.0034881496 0 -0.00012523537 0 0)
(1.2186199e-09 0.0011623267 0 -1.3902257e-05 0 0)
(1.1783501e-09 -0.0011623274 0 -1.3902216e-05 0 0)
(4.6231886e-10 -0.0034881499 0 -0.00012523527 0 0)
(-1.1384444e-09 -0.0058161979 0 -0.00034834848 0 0)
(-7.3453906e-10 -0.0081440972 0 -0.00068334936 0 0)
(-9.39291e-10 0.0081440977 0 -0.00068334954 0 0)
(-3.2934908e-10 0.0058161979 0 -0.00034834866 0 0)
(2.1993628e-10 0.0034881497 0 -0.00012523537 0 0)
(1.2934916e-09 0.0011623266 0 -1.3902205e-05 0 0)
(1.2213145e-09 -0.0011623273 0 -1.3902175e-05 0 0)
(9.3736513e-11 -0.0034881499 0 -0.00012523526 0 0)
(-4.6169015e-10 -0.0058161978 0 -0.00034834853 0 0)
(-1.0102021e-09 -0.0081440973 0 -0.00068334942 0 0)
(-5.9202061e-10 0.008144098 0 -0.00068334961 0 0)
(-9.1633881e-10 0.0058161978 0 -0.0003483487 0 0)
(5.807753e-10 0.0034881492 0 -0.00012523534 0 0)
(1.0856311e-09 0.0011623265 0 -1.3902142e-05 0 0)
(1.0450197e-09 -0.0011623271 0 -1.3902099e-05 0 0)
(4.3508253e-10 -0.0034881494 0 -0.00012523524 0 0)
(-1.0551322e-09 -0.0058161976 0 -0.00034834857 0 0)
(-6.5441566e-10 -0.0081440976 0 -0.0006833495 0 0)
(-8.6470529e-10 0.0081440981 0 -0.00068334966 0 0)
(-2.5289056e-10 0.0058161976 0 -0.00034834874 0 0)
(1.9372005e-10 0.0034881493 0 -0.00012523534 0 0)
(1.1653333e-09 0.0011623264 0 -1.3902095e-05 0 0)
(1.0928398e-09 -0.0011623271 0 -1.3902063e-05 0 0)
(6.9068699e-11 -0.0034881495 0 -0.00012523524 0 0)
(-3.8192312e-10 -0.0058161975 0 -0.00034834861 0 0)
(-9.3348157e-10 -0.0081440976 0 -0.00068334955 0 0)
(-5.1999556e-10 0.0081440983 0 -0.00068334973 0 0)
(-8.4315966e-10 0.0058161975 0 -0.00034834878 0 0)
(5.5389972e-10 0.0034881488 0 -0.00012523532 0 0)
(9.6297519e-10 0.0011623264 0 -1.3902037e-05 0 0)
(9.2360084e-10 -0.0011623269 0 -1.3901993e-05 0 0)
(4.1093494e-10 -0.003488149 0 -0.00012523522 0 0)
(-9.7777723e-10 -0.0058161974 0 -0.00034834865 0 0)
(-5.7982389e-10 -0.0081440979 0 -0.00068334962 0 0)
(-7.9578125e-10 0.0081440984 0 -0.00068334978 0 0)
(-1.8425674e-10 0.0058161974 0 -0.00034834881 0 0)
(1.6763942e-10 0.0034881489 0 -0.00012523532 0 0)
(1.0472432e-09 0.0011623263 0 -1.3901995e-05 0 0)
(9.7579004e-10 -0.0011623269 0 -1.3901962e-05 0 0)
(4.7265983e-11 -0.0034881491 0 -0.00012523522 0 0)
(-3.081461e-10 -0.0058161973 0 -0.00034834868 0 0)
(-8.6201571e-10 -0.008144098 0 -0.00068334968 0 0)
(-4.5359024e-10 0.0081440986 0 -0.00068334984 0 0)
(-7.7741135e-10 0.0058161973 0 -0.00034834884 0 0)