/*--------------------------------*- C++ -*----------------------------------*\
| =========                 |                                                 |
| \\      /  F ield         | OpenFOAM: The Open Source CFD Toolbox           |
|  \\    /   O peration     | Version:  5.x                                   |
|   \\  /    A nd           | Web:      www.OpenFOAM.org                      |
|    \\/     M anipulation  |                                                 |
\*---------------------------------------------------------------------------*/
FoamFile
{
    version     2.0;
    format      ascii;
    class       volSymmTensorField;
    location    "9";
    object      sigma_0;
}
// * * * * * * * * * * * * * * * * * * * * * * * * * * * * * * * * * * * * * //

dimensions      [0 2 -2 0 0 0 0];

internalField   nonuniform List<symmTensor> 
1920
(
(0.0031619441 0.016319985 0 -0.0099772554 0 0)
(-0.00048485512 0.0066232291 0 0.0017320681 0 0)
(-0.0020760519 0.0039734739 0 0.0016257495 0 0)
(-0.001685749 0.0012414053 0 0.0016706342 0 0)
(-0.0016857134 -0.0012414151 0 0.0016705983 0 0)
(-0.0020760579 -0.003973432 0 0.0016257564 0 0)
(-0.00048486104 -0.0066232266 0 0.0017320744 0 0)
(0.0031619427 -0.016319985 0 -0.0099772515 0 0)
(0.0054254568 0.011440234 0 -0.0056967866 0 0)
(0.00063612925 0.0023653517 0 0.00053820049 0 0)
(-0.003329462 0.00092647656 0 0.0028373248 0 0)
(-0.003378835 0.00047553613 0 0.0031007537 0 0)
(-0.0033788119 -0.00047553791 0 0.0031007276 0 0)
(-0.0033294934 -0.00092630553 0 0.0028373602 0 0)
(0.00063613421 -0.0023653432 0 0.00053819054 0 0)
(0.0054254566 -0.011440236 0 -0.0056967869 0 0)
(0.0049760243 0.0098553166 0 -0.0065608875 0 0)
(0.0012496221 0.0014704764 0 -0.00069048005 0 0)
(-0.0028410341 0.00038353055 0 0.0025426281 0 0)
(-0.0036288831 0.00013487753 0 0.0034522215 0 0)
(-0.0036288939 -0.00013487698 0 0.0034522356 0 0)
(-0.0028409762 -0.0003837083 0 0.0025425656 0 0)
(0.0012496296 -0.0014704888 0 -0.00069048535 0 0)
(0.0049760269 -0.0098553181 0 -0.0065608924 0 0)
(0.0038833006 0.0091101866 0 -0.005445468 0 0)
(0.0014159908 0.0019583931 0 -0.0012052476 0 0)
(-0.0021548565 0.00040988708 0 0.002016989 0 0)
(-0.0033477115 4.8157201e-05 0 0.0032837938 0 0)
(-0.0033476383 -4.8170934e-05 0 0.0032837219 0 0)
(-0.0021549275 -0.00040977905 0 0.0020170606 0 0)
(0.0014159957 -0.001958379 0 -0.0012052522 0 0)
(0.0038833069 -0.009110187 0 -0.0054454742 0 0)
(0.0029765437 0.0087606397 0 -0.0041726921 0 0)
(0.0013140707 0.0026529846 0 -0.0012780141 0 0)
(-0.0015375365 0.00081564823 0 0.0014452081 0 0)
(-0.0028483764 0.00014375229 0 0.002809803 0 0)
(-0.0028485582 -0.00014374674 0 0.002809986 0 0)
(-0.0015379865 -0.00081536071 0 0.0014456524 0 0)
(0.0013140609 -0.0026529752 0 -0.0012780038 0 0)
(0.0029765487 -0.0087606336 0 -0.0041726972 0 0)
(0.0022819096 0.0085165956 0 -0.003236019 0 0)
(0.0011211491 0.003389303 0 -0.0011926026 0 0)
(-0.0011147432 0.0012469446 0 0.0010372641 0 0)
(-0.0020999156 0.0003121772 0 0.0020774364 0 0)
(-0.0020998535 -0.00031220915 0 0.0020773715 0 0)
(-0.0011142375 -0.0012473849 0 0.0010367605 0 0)
(0.0011211862 -0.0033892996 0 -0.0011926406 0 0)
(0.0022819195 -0.0085165904 0 -0.0032360282 0 0)
(0.0015675744 0.0082651105 0 -0.0023932288 0 0)
(0.0008652335 0.004049689 0 -0.0010194608 0 0)
(-0.00073165573 0.0017349788 0 0.00065975611 0 0)
(-0.0016033006 0.00046877168 0 0.0015922799 0 0)
(-0.0016032677 -0.00046878811 0 0.0015922476 0 0)
(-0.00073155109 -0.0017350532 0 0.00065965032 0 0)
(0.00086525477 -0.0040496836 0 -0.0010194812 0 0)
(0.0015675758 -0.008265096 0 -0.0023932294 0 0)
(0.0010914261 0.0081018277 0 -0.0018513028 0 0)
(0.00067774534 0.0044356918 0 -0.00088473971 0 0)
(-0.00046870648 0.0021585796 0 0.00039424882 0 0)
(-0.0011909808 0.00061229658 0 0.0011866466 0 0)
(-0.0011910487 -0.00061227946 0 0.0011867135 0 0)
(-0.00046870316 -0.002158555 0 0.00039424559 0 0)
(0.000677749 -0.0044357082 0 -0.00088474523 0 0)
(0.0010914231 -0.0081018129 0 -0.0018512981 0 0)
(0.00074927096 0.0079907818 0 -0.0014692187 0 0)
(0.00048702014 0.0048020139 0 -0.00073657266 0 0)
(-0.00030805885 0.0024668423 0 0.00022593129 0 0)
(-0.00088420587 0.0007264338 0 0.00088143435 0 0)
(-0.0008840056 -0.0007265149 0 0.00088123691 0 0)
(-0.00030801058 -0.0024668975 0 0.00022588346 0 0)
(0.00048705275 -0.0048019737 0 -0.00073660442 0 0)
(0.00074928965 -0.0079907666 0 -0.0014692364 0 0)
(0.00050355123 0.0079129672 0 -0.0011989406 0 0)
(0.00035281503 0.0050315939 0 -0.00063119704 0 0)
(-0.00019570977 0.0027166829 0 0.00010430723 0 0)
(-0.0006010353 0.00083824089 0 0.00059746446 0 0)
(-0.00060120895 -0.0008381801 0 0.00059763718 0 0)
(-0.00019572989 -0.0027166173 0 0.00010432845 0 0)
(0.00035281003 -0.0050316093 0 -0.00063119261 0 0)
(0.00050354437 -0.0079129447 0 -0.0011989313 0 0)
(0.0003310437 0.0078600378 0 -0.0010117998 0 0)
(0.0002499798 0.0051968117 0 -0.00054859002 0 0)
(-0.00012191432 0.0029032452 0 2.230971e-05 0 0)
(-0.00041599584 0.00091494251 0 0.00041049371 0 0)
(-0.00041591771 -0.00091498424 0 0.00041041484 0 0)
(-0.0001218787 -0.0029033095 0 2.2272822e-05 0 0)
(0.00025000517 -0.0051967689 0 -0.00054861368 0 0)
(0.00033106271 -0.007860019 0 -0.0010118167 0 0)
(0.00021357549 0.0078249919 0 -0.00088577288 0 0)
(0.00017209224 0.0053149992 0 -0.00048451663 0 0)
(-7.4568175e-05 0.0030376979 0 -3.1501172e-05 0 0)
(-0.00027570106 0.0009757528 0 0.00026816321 0 0)
(-0.00027569514 -0.00097576159 0 0.00026815753 0 0)
(-7.4588036e-05 -0.0030376405 0 -3.1480238e-05 0 0)
(0.00017208024 -0.0053150096 0 -0.00048450484 0 0)
(0.0002135664 -0.0078249658 0 -0.00088576094 0 0)
(0.00013555492 0.007802286 0 -0.00080279733 0 0)
(0.0001157855 0.0053959868 0 -0.00043734634 0 0)
(-4.4674188e-05 0.0031323653 0 -6.6226913e-05 0 0)
(-0.00018093905 0.0010182177 0 0.00017167213 0 0)
(-0.00018109859 -0.0010181693 0 0.00017183103 0 0)
(-4.4658666e-05 -0.0031324179 0 -6.6243696e-05 0 0)
(0.0001158003 -0.0053959506 0 -0.00043735937 0 0)
(0.0001355683 -0.0078022648 0 -0.00080280773 0 0)
(8.4511943e-05 0.0077877982 0 -0.00074891992 0 0)
(7.6382954e-05 0.0054499166 0 -0.00040385995 0 0)
(-2.6088474e-05 0.003197689 0 -8.827592e-05 0 0)
(-0.00011662226 0.0010479929 0 0.00010602044 0 0)
(-0.0001164278 -0.0010480838 0 0.00010582581 0 0)
(-2.6106258e-05 -0.0031976512 0 -8.8257573e-05 0 0)
(7.6367259e-05 -0.0054499221 0 -0.00040384382 0 0)
(8.4503859e-05 -0.0077877728 0 -0.00074890876 0 0)
(5.1641717e-05 0.0077787152 0 -0.00071446638 0 0)
(4.9455084e-05 0.0054851493 0 -0.0003806914 0 0)
(-1.47888e-05 0.0032418108 0 -0.00010197286 0 0)
(-7.4912818e-05 0.0010678988 0 6.3348573e-05 0 0)
(-7.51379e-05 -0.0010678221 0 6.3573586e-05 0 0)
(-1.478756e-05 -0.0032418484 0 -0.00010197514 0 0)
(4.9459679e-05 -0.0054851244 0 -0.00038069449 0 0)
(5.164843e-05 -0.0077786942 0 -0.00071446978 0 0)
(3.0846424e-05 0.007773145 0 -0.00069281714 0 0)
(3.1419723e-05 0.0055077437 0 -0.00036500457 0 0)
(-8.0274029e-06 0.003271189 0 -0.00011034439 0 0)
(-4.7012522e-05 0.0010815063 0 3.4778298e-05 0 0)
(-4.6321372e-05 -0.0010818324 0 3.4083619e-05 0 0)
(-8.0420074e-06 -0.0032711712 0 -0.00011032979 0 0)
(3.1404757e-05 -0.0055077451 0 -0.00036498884 0 0)
(3.0839453e-05 -0.0077731225 0 -0.00069280711 0 0)
(1.7902551e-05 0.0077698079 0 -0.00067943757 0 0)
(1.9540211e-05 0.0055220267 0 -0.00035456544 0 0)
(-4.1125946e-06 0.0032903156 0 -0.00011531115 0 0)
(-2.8386526e-05 0.0010907872 0 1.5701124e-05 0 0)
(-2.9223384e-05 -0.0010904265 0 1.6541685e-05 0 0)
(-4.1183991e-06 -0.0032903399 0 -0.00011530619 0 0)
(1.9537891e-05 -0.0055220124 0 -0.00035456204 0 0)
(1.7903994e-05 -0.0077697889 0 -0.00067943584 0 0)
(1.0033785e-05 0.0077678765 0 -0.00067136569 0 0)
(1.1883628e-05 0.0055308468 0 -0.00034777368 0 0)
(-1.8994282e-06 0.0033026233 0 -0.00011819562 0 0)
(-1.7387237e-05 0.0010964347 0 4.411413e-06 0 0)
(-1.6815006e-05 -0.0010967213 0 3.8356607e-06 0 0)
(-1.9103463e-06 -0.0033026201 0 -0.00011818506 0 0)
(1.1871814e-05 -0.0055308458 0 -0.00034776111 0 0)
(1.0028027e-05 -0.0077678576 0 -0.00067135711 0 0)
(5.3392537e-06 0.0077668016 0 -0.00066659307 0 0)
(7.0156549e-06 0.0055362192 0 -0.00034341463 0 0)
(-7.1571922e-07 0.0033103317 0 -0.00011979548 0 0)
(-9.7498401e-06 0.0011004113 0 -3.4147575e-06 0 0)
(-1.0189758e-05 -0.0011002213 0 -2.9728371e-06 0 0)
(-7.2318598e-07 -0.003310346 0 -0.00011978874 0 0)
(7.0101449e-06 -0.0055362123 0 -0.00034340839 0 0)
(5.3377699e-06 -0.0077667851 0 -0.0006665888 0 0)
(2.7070918e-06 0.0077662551 0 -0.00066394629 0 0)
(4.0080808e-06 0.0055393817 0 -0.00034069669 0 0)
(-1.1535004e-07 0.0033151047 0 -0.00012064815 0 0)
(-5.6065579e-06 0.0011026508 0 -7.6720821e-06 0 0)
(-5.1594923e-06 -0.0011028881 0 -8.1224129e-06 0 0)
(-1.2293311e-07 -0.0033151097 0 -0.00012064119 0 0)
(3.9999927e-06 -0.0055393794 0 -0.00034068798 0 0)
(2.7029839e-06 -0.0077662395 0 -0.00066393972 0 0)
(1.1455078e-06 0.0077659812 0 -0.00066239742 0 0)
(2.1722368e-06 0.0055412125 0 -0.00033902183 0 0)
(1.5269158e-07 0.0033179572 0 -0.00012106299 0 0)
(-2.5831325e-06 0.0011043013 0 -1.0767714e-05 0 0)
(-3.0502375e-06 -0.0011040821 0 -1.0297634e-05 0 0)
(1.4613088e-07 -0.0033179653 0 -0.00012105706 0 0)
(2.1659579e-06 -0.0055412096 0 -0.0003390151 0 0)
(1.1428045e-06 -0.007765967 0 -0.00066239235 0 0)
(3.5163095e-07 0.0077658811 0 -0.0006616269 0 0)
(1.1005658e-06 0.0055422125 0 -0.00033803391 0 0)
(2.4689752e-07 0.0033196327 0 -0.0001212403 0 0)
(-1.4558959e-06 0.0011049698 0 -1.1932596e-05 0 0)
(-1.198836e-06 -0.0011051204 0 -1.2192122e-05 0 0)
(2.4150006e-07 -0.0033196405 0 -0.00012123557 0 0)
(1.0953998e-06 -0.0055422095 0 -0.00033802827 0 0)
(3.4894382e-07 -0.007765868 0 -0.00066162212 0 0)
(-4.2555969e-08 0.0077658702 0 -0.00066125777 0 0)
(4.8255769e-07 0.0055427398 0 -0.00033745815 0 0)
(2.5423118e-07 0.0033205675 0 -0.00012129109 0 0)
(-4.0980094e-07 0.001105582 0 -1.3003103e-05 0 0)
(-4.3900645e-07 -0.0011055818 0 -1.2973997e-05 0 0)
(2.4915518e-07 -0.0033205724 0 -0.00012128661 0 0)
(4.7672426e-07 -0.0055427383 0 -0.000337452 0 0)
(-4.564338e-08 -0.007765858 0 -0.00066125273 0 0)
(-2.1047785e-07 0.0077659 0 -0.00066111192 0 0)
(1.555608e-07 0.0055429853 0 -0.000337148 0 0)
(2.233427e-07 0.0033210681 0 -0.00012128182 0 0)
(-4.1616876e-08 0.001105824 0 -1.3382527e-05 0 0)
(-8.8649341e-08 -0.0011058102 0 -1.3335602e-05 0 0)
(2.1897363e-07 -0.0033210757 0 -0.00012127806 0 0)
(1.5209874e-07 -0.0055429824 0 -0.00033714419 0 0)
(-2.1297096e-07 -0.0077658887 0 -0.00066110765 0 0)
(-2.532068e-07 0.0077659427 0 -0.0006610877 0 0)
(-7.224053e-09 0.005543085 0 -0.00033699053 0 0)
(1.818672e-07 0.0033213095 0 -0.00012124842 0 0)
(1.5516253e-07 0.0011059636 0 -1.3585158e-05 0 0)
(1.4231641e-07 -0.001105968 0 -1.3572597e-05 0 0)
(1.7803768e-07 -0.0033213135 0 -0.00012124508 0 0)
(-1.218612e-08 -0.0055430835 0 -0.0003369853 0 0)
(-2.5580899e-07 -0.0077659321 0 -0.00066108351 0 0)
(-2.3917489e-07 0.0077659877 0 -0.00066111639 0 0)
(-8.9830079e-08 0.0055431129 0 -0.00033690654 0 0)
(1.4356733e-07 0.0033214077 0 -0.00012121213 0 0)
(2.0195097e-07 0.0011060138 0 -1.3634054e-05 0 0)
(1.8348637e-07 -0.0011060103 0 -1.3615751e-05 0 0)
(1.3945136e-07 -0.0033214133 0 -0.00012120848 0 0)
(-9.348622e-08 -0.005543111 0 -0.00033690262 0 0)
(-2.4160975e-07 -0.0077659777 0 -0.00066111244 0 0)
(-2.0433616e-07 0.0077660231 0 -0.00066116193 0 0)
(-1.0837072e-07 0.0055430975 0 -0.00033688529 0 0)
(1.0589263e-07 0.0033214399 0 -0.0001211729 0 0)
(2.0396169e-07 0.0011060286 0 -1.3636626e-05 0 0)
(2.0476684e-07 -0.0011060388 0 -1.3637722e-05 0 0)
(1.0201094e-07 -0.0033214441 0 -0.00012116946 0 0)
(-1.1287019e-07 -0.0055430955 0 -0.00033688042 0 0)
(-2.0633991e-07 -0.007766014 0 -0.0006611586 0 0)
(-1.6121813e-07 0.0077660558 0 -0.00066121285 0 0)
(-1.0706283e-07 0.0055430662 0 -0.00033688374 0 0)
(7.5904305e-08 0.003321426 0 -0.00012114051 0 0)
(1.8680012e-07 0.0011060344 0 -1.3619261e-05 0 0)
(1.861802e-07 -0.0011060414 0 -1.3618924e-05 0 0)
(7.2497993e-08 -0.0033214305 0 -0.00012113744 0 0)
(-1.1060575e-07 -0.0055430647 0 -0.00033687993 0 0)
(-1.6306245e-07 -0.0077660476 0 -0.00066120976 0 0)
(-1.2502296e-07 0.0077660786 0 -0.00066125478 0 0)
(-8.9955218e-08 0.0055430362 0 -0.00033689689 0 0)
(5.3204751e-08 0.0033213988 0 -0.00012111513 0 0)
(1.5960505e-07 0.0011060251 0 -1.3591475e-05 0 0)
(1.5788653e-07 -0.0011060335 0 -1.358996e-05 0 0)
(4.9783363e-08 -0.0033214024 0 -0.00012111205 0 0)
(-9.3910395e-08 -0.0055430354 0 -0.00033689265 0 0)
(-1.2702513e-07 -0.0077660704 0 -0.00066125164 0 0)
(-9.4004791e-08 0.0077660974 0 -0.00066128977 0 0)
(-7.4501299e-08 0.0055430086 0 -0.00033690938 0 0)
(3.6634229e-08 0.0033213663 0 -0.00012109611 0 0)
(1.2468594e-07 0.0011060138 0 -1.3555813e-05 0 0)
(1.2334745e-07 -0.0011060204 0 -1.3554706e-05 0 0)
(3.3678841e-08 -0.0033213707 0 -0.00012109346 0 0)
(-7.7831016e-08 -0.0055430073 0 -0.00033690587 0 0)
(-9.5741652e-08 -0.0077660904 0 -0.00066128698 0 0)
(-6.8651658e-08 0.0077661109 0 -0.00066131797 0 0)
(-5.7641271e-08 0.0055429858 0 -0.00033692383 0 0)
(2.5464058e-08 0.0033213357 0 -0.00012108293 0 0)
(1.0056353e-07 0.0011060036 0 -1.3531081e-05 0 0)
(9.780837e-08 -0.0011060092 0 -1.352849e-05 0 0)
(2.2203102e-08 -0.0033213386 0 -0.00012107996 0 0)
(-6.124076e-08 -0.0055429848 0 -0.00033691998 0 0)
(-7.0414711e-08 -0.007766104 0 -0.00066131525 0 0)
(-5.0164143e-08 0.0077661217 0 -0.00066133833 0 0)
(-4.4971794e-08 0.0055429673 0 -0.00033693473 0 0)
(1.8093987e-08 0.0033213136 0 -0.00012107378 0 0)
(7.2533403e-08 0.0011059906 0 -1.3502435e-05 0 0)
(7.1104406e-08 -0.0011059959 0 -1.3501189e-05 0 0)
(1.4936425e-08 -0.0033213169 0 -0.00012107087 0 0)
(-4.8116718e-08 -0.0055429665 0 -0.00033693142 0 0)
(-5.1777904e-08 -0.0077661159 0 -0.00066133584 0 0)
(-3.5964923e-08 0.0077661288 0 -0.00066135394 0 0)
(-3.3440467e-08 0.0055429531 0 -0.00033694494 0 0)
(1.3741786e-08 0.0033212938 0 -0.00012106798 0 0)
(5.6067342e-08 0.0011059834 0 -1.3485575e-05 0 0)
(5.465314e-08 -0.001105988 0 -1.3484307e-05 0 0)
(1.0903733e-08 -0.0033212964 0 -0.00012106538 0 0)
(-3.6592601e-08 -0.0055429523 0 -0.00033694156 0 0)
(-3.7570309e-08 -0.0077661232 0 -0.00066135153 0 0)
(-2.6048606e-08 0.0077661349 0 -0.00066136464 0 0)
(-2.5760089e-08 0.0055429424 0 -0.00033695185 0 0)
(9.6280655e-09 0.0033212794 0 -0.00012106296 0 0)
(3.9908769e-08 0.0011059748 0 -1.3469062e-05 0 0)
(3.8632398e-08 -0.0011059786 0 -1.3467913e-05 0 0)
(6.8392761e-09 -0.003321282 0 -0.00012106036 0 0)
(-2.857105e-08 -0.005542942 0 -0.00033694888 0 0)
(-2.7508346e-08 -0.0077661301 0 -0.00066136245 0 0)
(-1.9079492e-08 0.0077661387 0 -0.00066137241 0 0)
(-1.9024232e-08 0.0055429343 0 -0.00033695777 0 0)
(7.1986018e-09 0.003321267 0 -0.00012105978 0 0)
(3.1131388e-08 0.0011059712 0 -1.3460075e-05 0 0)
(3.0318507e-08 -0.0011059751 0 -1.3459386e-05 0 0)
(4.8301957e-09 -0.0033212692 0 -0.00012105758 0 0)
(-2.1716642e-08 -0.0055429338 0 -0.00033695489 0 0)
(-2.0518584e-08 -0.0077661342 0 -0.0006613703 0 0)
(-1.4001643e-08 0.0077661421 0 -0.00066137777 0 0)
(-1.4827398e-08 0.0055429284 0 -0.00033696168 0 0)
(5.4493474e-09 0.0033212584 0 -0.0001210575 0 0)
(2.3502076e-08 0.0011059666 0 -1.3452277e-05 0 0)
(2.2437787e-08 -0.0011059696 0 -1.3451303e-05 0 0)
(3.172356e-09 -0.0033212607 0 -0.00012105537 0 0)
(-1.7252935e-08 -0.0055429282 0 -0.00033695911 0 0)
(-1.5305062e-08 -0.0077661383 0 -0.00066137585 0 0)
(-1.0953652e-08 0.0077661445 0 -0.00066138136 0 0)
(-1.1326229e-08 0.0055429239 0 -0.00033696465 0 0)
(4.1971429e-09 0.003321251 0 -0.00012105586 0 0)
(1.8999171e-08 0.0011059646 0 -1.3447659e-05 0 0)
(1.8439507e-08 -0.0011059679 0 -1.3447207e-05 0 0)
(2.2703743e-09 -0.0033212531 0 -0.00012105406 0 0)
(-1.3563571e-08 -0.0055429237 0 -0.00033696225 0 0)
(-1.220987e-08 -0.0077661409 0 -0.00066137955 0 0)
(-8.4294698e-09 0.0077661466 0 -0.00066138395 0 0)
(-9.2767767e-09 0.0055429207 0 -0.00033696662 0 0)
(3.4969589e-09 0.0033212459 0 -0.00012105482 0 0)
(1.5476718e-08 0.0011059621 0 -1.3444061e-05 0 0)
(1.4766655e-08 -0.0011059649 0 -1.3443426e-05 0 0)
(1.7036322e-09 -0.0033212479 0 -0.00012105316 0 0)
(-1.1273335e-08 -0.0055429206 0 -0.0003369645 0 0)
(-9.5484165e-09 -0.0077661436 0 -0.00066138232 0 0)
(-7.2420229e-09 0.0077661483 0 -0.00066138556 0 0)
(-7.5677778e-09 0.0055429182 0 -0.00033696796 0 0)
(2.8695313e-09 0.0033212412 0 -0.00012105398 0 0)
(1.3283099e-08 0.0011059608 0 -1.3441802e-05 0 0)
(1.2898036e-08 -0.0011059639 0 -1.3441513e-05 0 0)
(1.3680981e-09 -0.0033212429 0 -0.00012105258 0 0)
(-9.354823e-09 -0.0055429182 0 -0.00033696604 0 0)
(-8.2963384e-09 -0.0077661455 0 -0.00066138405 0 0)
(-5.9871022e-09 0.0077661499 0 -0.00066138679 0 0)
(-6.6971518e-09 0.0055429164 0 -0.00033696884 0 0)
(2.588074e-09 0.0033212381 0 -0.00012105347 0 0)
(1.158398e-08 0.0011059592 0 -1.3440069e-05 0 0)
(1.1122431e-08 -0.0011059617 0 -1.3439671e-05 0 0)
(1.2339314e-09 -0.0033212399 0 -0.00012105223 0 0)
(-8.2674421e-09 -0.0055429164 0 -0.00033696717 0 0)
(-6.9065332e-09 -0.0077661474 0 -0.00066138546 0 0)
(-5.5874409e-09 0.0077661513 0 -0.00066138756 0 0)
(-5.8530956e-09 0.0055429149 0 -0.0003369694 0 0)
(2.2505644e-09 0.0033212348 0 -0.000121053 0 0)
(1.0521308e-08 0.0011059583 0 -1.3438966e-05 0 0)
(1.023482e-08 -0.001105961 0 -1.3438764e-05 0 0)
(1.1411927e-09 -0.0033212363 0 -0.00012105198 0 0)
(-7.2221347e-09 -0.0055429149 0 -0.00033696792 0 0)
(-6.4389903e-09 -0.007766149 0 -0.00066138634 0 0)
(-4.9065968e-09 0.0077661525 0 -0.00066138818 0 0)
(-5.5457881e-09 0.0055429137 0 -0.00033696977 0 0)
(2.1164793e-09 0.0033212329 0 -0.00012105271 0 0)
(9.6564407e-09 0.001105957 0 -1.3438085e-05 0 0)
(9.3487668e-09 -0.0011059591 0 -1.3437833e-05 0 0)
(1.1447151e-09 -0.0033212344 0 -0.00012105184 0 0)
(-6.73099e-09 -0.0055429138 0 -0.0003369685 0 0)
(-5.6353827e-09 -0.0077661506 0 -0.00066138711 0 0)
(-4.8247032e-09 0.0077661538 0 -0.00066138861 0 0)
(-5.077604e-09 0.0055429127 0 -0.00033696999 0 0)
(1.9025618e-09 0.0033212302 0 -0.0001210524 0 0)
(9.0999049e-09 0.0011059563 0 -1.3437502e-05 0 0)
(8.8900956e-09 -0.0011059586 0 -1.3437365e-05 0 0)
(1.1282308e-09 -0.0033212314 0 -0.00012105171 0 0)
(-6.0845888e-09 -0.0055429127 0 -0.0003369689 0 0)
(-5.4899815e-09 -0.007766152 0 -0.00066138764 0 0)
(-4.3868697e-09 0.0077661549 0 -0.00066138897 0 0)
(-5.0092993e-09 0.0055429118 0 -0.00033697015 0 0)
(1.8223368e-09 0.0033212289 0 -0.00012105221 0 0)
(8.6103808e-09 0.0011059553 0 -1.3437003e-05 0 0)
(8.4109851e-09 -0.001105957 0 -1.3436852e-05 0 0)
(1.1613149e-09 -0.0033212301 0 -0.00012105164 0 0)
(-5.8692227e-09 -0.0055429118 0 -0.00033696923 0 0)
(-4.945415e-09 -0.0077661533 0 -0.00066138813 0 0)
(-4.427162e-09 0.0077661561 0 -0.00066138926 0 0)
(-4.6928974e-09 0.005542911 0 -0.00033697025 0 0)
(1.6655285e-09 0.0033212266 0 -0.00012105198 0 0)
(8.2685069e-09 0.0011059546 0 -1.3436642e-05 0 0)
(8.1269423e-09 -0.0011059566 0 -1.3436565e-05 0 0)
(1.1557297e-09 -0.0033212276 0 -0.00012105154 0 0)
(-5.4059912e-09 -0.005542911 0 -0.00033696947 0 0)
(-4.9314441e-09 -0.0077661546 0 -0.00066138851 0 0)
(-4.0873656e-09 0.0077661571 0 -0.00066138951 0 0)
(-4.7126681e-09 0.0055429103 0 -0.00033697032 0 0)
(1.6106611e-09 0.0033212255 0 -0.00012105184 0 0)
(7.9437013e-09 0.0011059537 0 -1.3436313e-05 0 0)
(7.8249474e-09 -0.0011059552 0 -1.3436237e-05 0 0)
(1.1845886e-09 -0.0033212265 0 -0.00012105149 0 0)
(-5.3143901e-09 -0.0055429103 0 -0.00033696968 0 0)
(-4.5022232e-09 -0.0077661558 0 -0.00066138886 0 0)
(-4.1698679e-09 0.0077661583 0 -0.00066138975 0 0)
(-4.4524052e-09 0.0055429096 0 -0.00033697038 0 0)
(1.4866561e-09 0.0033212234 0 -0.00012105165 0 0)
(7.690181e-09 0.0011059531 0 -1.3436045e-05 0 0)
(7.604045e-09 -0.0011059548 0 -1.3436016e-05 0 0)
(1.1707042e-09 -0.0033212242 0 -0.0001210514 0 0)
(-4.9408577e-09 -0.0055429095 0 -0.00033696985 0 0)
(-4.5421045e-09 -0.007766157 0 -0.00066138917 0 0)
(-3.8684629e-09 0.0077661593 0 -0.00066138996 0 0)
(-4.4960298e-09 0.0055429089 0 -0.00033697044 0 0)
(1.4479783e-09 0.0033212225 0 -0.00012105154 0 0)
(7.4383259e-09 0.0011059522 0 -1.343579e-05 0 0)
(7.3768062e-09 -0.0011059536 0 -1.3435767e-05 0 0)
(1.1874317e-09 -0.0033212233 0 -0.00012105135 0 0)
(-4.9048719e-09 -0.0055429088 0 -0.00033697 0 0)
(-4.1682763e-09 -0.0077661582 0 -0.00066138946 0 0)
(-3.9620858e-09 0.0077661604 0 -0.00066139017 0 0)
(-4.2534217e-09 0.0055429083 0 -0.0003369705 0 0)
(1.3469831e-09 0.0033212205 0 -0.00012105138 0 0)
(7.2216136e-09 0.0011059516 0 -1.3435563e-05 0 0)
(7.1744573e-09 -0.0011059531 0 -1.3435567e-05 0 0)
(1.1625931e-09 -0.0033212212 0 -0.00012105126 0 0)
(-4.5794577e-09 -0.0055429082 0 -0.00033697014 0 0)
(-4.2312801e-09 -0.0077661593 0 -0.00066138973 0 0)
(-3.6761193e-09 0.0077661614 0 -0.00066139036 0 0)
(-4.2967519e-09 0.0055429077 0 -0.00033697056 0 0)
(1.3203211e-09 0.0033212196 0 -0.00012105129 0 0)
(7.0045149e-09 0.0011059508 0 -1.3435345e-05 0 0)
(6.9797514e-09 -0.0011059521 0 -1.3435355e-05 0 0)
(1.1676237e-09 -0.0033212203 0 -0.00012105121 0 0)
(-4.5697838e-09 -0.0055429075 0 -0.00033697027 0 0)
(-3.8884162e-09 -0.0077661603 0 -0.00066138998 0 0)
(-3.769817e-09 0.0077661625 0 -0.00066139056 0 0)
(-4.0584824e-09 0.0055429071 0 -0.00033697062 0 0)
(1.2369849e-09 0.0033212178 0 -0.00012105116 0 0)
(6.8046297e-09 0.0011059503 0 -1.3435137e-05 0 0)
(6.7806015e-09 -0.0011059516 0 -1.343516e-05 0 0)
(1.1340242e-09 -0.0033212183 0 -0.00012105112 0 0)
(-4.2739328e-09 -0.0055429069 0 -0.00033697038 0 0)
(-3.9625147e-09 -0.0077661614 0 -0.00066139022 0 0)
(-3.4912457e-09 0.0077661633 0 -0.00066139074 0 0)
(-4.0944569e-09 0.0055429065 0 -0.00033697069 0 0)
(1.2192222e-09 0.0033212169 0 -0.00012105109 0 0)
(6.60675e-09 0.0011059495 0 -1.343494e-05 0 0)
(6.6022072e-09 -0.0011059507 0 -1.3434969e-05 0 0)
(1.1299147e-09 -0.0033212175 0 -0.00012105106 0 0)
(-4.2779373e-09 -0.0055429063 0 -0.00033697049 0 0)
(-3.6403432e-09 -0.0077661624 0 -0.00066139045 0 0)
(-3.5817949e-09 0.0077661644 0 -0.00066139093 0 0)
(-3.8575035e-09 0.005542906 0 -0.00033697076 0 0)
(1.1495735e-09 0.0033212152 0 -0.00012105098 0 0)
(6.4162522e-09 0.0011059489 0 -1.3434745e-05 0 0)
(6.4026697e-09 -0.0011059502 0 -1.3434775e-05 0 0)
(1.0905943e-09 -0.0033212157 0 -0.00012105098 0 0)
(-4.002962e-09 -0.0055429057 0 -0.0003369706 0 0)
(-3.7205924e-09 -0.0077661634 0 -0.00066139067 0 0)
(-3.3082684e-09 0.0077661652 0 -0.00066139111 0 0)
(-3.8856307e-09 0.0055429054 0 -0.00033697083 0 0)
(1.1379074e-09 0.0033212144 0 -0.00012105092 0 0)
(6.2311735e-09 0.0011059482 0 -1.3434562e-05 0 0)
(6.2347063e-09 -0.0011059494 0 -1.3434597e-05 0 0)
(1.0800162e-09 -0.0033212149 0 -0.00012105092 0 0)
(-4.0147573e-09 -0.0055429052 0 -0.0003369707 0 0)
(-3.4142337e-09 -0.0077661643 0 -0.00066139087 0 0)
(-3.3953075e-09 0.0077661662 0 -0.00066139129 0 0)
(-3.6506278e-09 0.0055429049 0 -0.00033697092 0 0)
(1.0786511e-09 0.0033212127 0 -0.00012105082 0 0)
(6.0473566e-09 0.0011059477 0 -1.3434377e-05 0 0)
(6.0353378e-09 -0.0011059489 0 -1.3434404e-05 0 0)
(1.0376687e-09 -0.0033212132 0 -0.00012105084 0 0)
(-3.7559802e-09 -0.0055429046 0 -0.0003369708 0 0)
(-3.4982767e-09 -0.0077661653 0 -0.00066139108 0 0)
(-3.1264808e-09 0.007766167 0 -0.00066139146 0 0)
(-3.6725289e-09 0.0055429044 0 -0.00033697099 0 0)
(1.0706615e-09 0.0033212119 0 -0.00012105077 0 0)
(5.8722371e-09 0.001105947 0 -1.3434205e-05 0 0)
(5.8757603e-09 -0.0011059481 0 -1.3434238e-05 0 0)
(1.0228379e-09 -0.0033212124 0 -0.00012105078 0 0)
(-3.7724559e-09 -0.0055429041 0 -0.0003369709 0 0)
(-3.2049124e-09 -0.0077661661 0 -0.00066139127 0 0)
(-3.2105705e-09 0.007766168 0 -0.00066139164 0 0)
(-3.4410599e-09 0.0055429039 0 -0.00033697108 0 0)
(1.0191206e-09 0.0033212104 0 -0.00012105069 0 0)
(5.6941293e-09 0.0011059465 0 -1.3434027e-05 0 0)
(5.6782369e-09 -0.0011059476 0 -1.3434049e-05 0 0)
(9.7952778e-10 -0.0033212108 0 -0.0001210507 0 0)
(-3.5269984e-09 -0.0055429036 0 -0.00033697099 0 0)
(-3.2913854e-09 -0.0077661671 0 -0.00066139146 0 0)
(-2.9467162e-09 0.0077661687 0 -0.0006613918 0 0)
(-3.4587349e-09 0.0055429034 0 -0.00033697116 0 0)
(1.012904e-09 0.0033212097 0 -0.00012105064 0 0)
(5.527561e-09 0.0011059459 0 -1.3433866e-05 0 0)
(5.5263039e-09 -0.001105947 0 -1.3433893e-05 0 0)
(9.6211753e-10 -0.0033212101 0 -0.00012105065 0 0)
(-3.5463479e-09 -0.0055429031 0 -0.00033697108 0 0)
(-3.0090922e-09 -0.0077661678 0 -0.00066139164 0 0)
(-3.0286434e-09 0.0077661696 0 -0.00066139197 0 0)
(-3.2323233e-09 0.005542903 0 -0.00033697125 0 0)
(9.6701862e-10 0.0033212082 0 -0.00012105057 0 0)
(5.3548427e-09 0.0011059454 0 -1.3433696e-05 0 0)
(5.3323308e-09 -0.0011059465 0 -1.3433708e-05 0 0)
(9.1931365e-10 -0.0033212086 0 -0.00012105057 0 0)
(-3.3122436e-09 -0.0055429026 0 -0.00033697117 0 0)
(-3.0970958e-09 -0.0077661687 0 -0.00066139182 0 0)
(-2.770149e-09 0.0077661703 0 -0.00066139213 0 0)
(-3.2475331e-09 0.0055429025 0 -0.00033697134 0 0)
(9.6121379e-10 0.0033212075 0 -0.00012105053 0 0)
(5.1960515e-09 0.0011059448 0 -1.3433543e-05 0 0)
(5.187707e-09 -0.0011059459 0 -1.3433561e-05 0 0)
(9.0052797e-10 -0.0033212079 0 -0.00012105053 0 0)
(-3.3333516e-09 -0.0055429022 0 -0.00033697126 0 0)
(-2.8244336e-09 -0.0077661694 0 -0.00066139198 0 0)
(-2.8506844e-09 0.0077661712 0 -0.00066139229 0 0)
(-3.0273253e-09 0.0055429021 0 -0.00033697143 0 0)
(9.1948378e-10 0.0033212061 0 -0.00012105047 0 0)
(5.0286801e-09 0.0011059443 0 -1.343338e-05 0 0)
(4.9986934e-09 -0.0011059454 0 -1.3433382e-05 0 0)
(8.592084e-10 -0.0033212065 0 -0.00012105046 0 0)
(-3.109185e-09 -0.0055429017 0 -0.00033697135 0 0)
(-2.9133644e-09 -0.0077661703 0 -0.00066139215 0 0)
(-2.5978834e-09 0.0077661718 0 -0.00066139244 0 0)
(-3.0414441e-09 0.0055429016 0 -0.00033697151 0 0)
(9.1321297e-10 0.0033212055 0 -0.00012105043 0 0)
(4.8772179e-09 0.0011059438 0 -1.3433235e-05 0 0)
(4.861159e-09 -0.0011059449 0 -1.3433244e-05 0 0)
(8.398732e-10 -0.0033212059 0 -0.00012105041 0 0)
(-3.1313772e-09 -0.0055429013 0 -0.00033697143 0 0)
(-2.6492377e-09 -0.0077661709 0 -0.00066139231 0 0)
(-2.6777062e-09 0.0077661726 0 -0.0006613926 0 0)
(-2.8282248e-09 0.0055429012 0 -0.0003369716 0 0)
(8.7460337e-10 0.0033212042 0 -0.00012105038 0 0)
(4.715288e-09 0.0011059434 0 -1.3433079e-05 0 0)
(4.6781703e-09 -0.0011059444 0 -1.3433072e-05 0 0)
(8.006365e-10 -0.0033212046 0 -0.00012105035 0 0)
(-2.9161218e-09 -0.0055429009 0 -0.00033697152 0 0)
(-2.7387202e-09 -0.0077661718 0 -0.00066139247 0 0)
(-2.4308356e-09 0.0077661732 0 -0.00066139274 0 0)
(-2.8423114e-09 0.0055429008 0 -0.00033697169 0 0)
(8.6737665e-10 0.0033212036 0 -0.00012105034 0 0)
(4.5708982e-09 0.0011059429 0 -1.3432941e-05 0 0)
(4.547542e-09 -0.0011059439 0 -1.3432941e-05 0 0)
(7.8128938e-10 -0.003321204 0 -0.00012105031 0 0)
(-2.9390405e-09 -0.0055429005 0 -0.0003369716 0 0)
(-2.482317e-09 -0.0077661724 0 -0.00066139261 0 0)
(-2.5105191e-09 0.0077661739 0 -0.00066139289 0 0)
(-2.6365785e-09 0.0055429004 0 -0.00033697177 0 0)
(8.3121296e-10 0.0033212024 0 -0.00012105029 0 0)
(4.4145751e-09 0.0011059424 0 -1.3432792e-05 0 0)
(4.371337e-09 -0.0011059434 0 -1.3432777e-05 0 0)
(7.4445742e-10 -0.0033212028 0 -0.00012105025 0 0)
(-2.7319604e-09 -0.0055429001 0 -0.00033697168 0 0)
(-2.5721639e-09 -0.0077661731 0 -0.00066139277 0 0)
(-2.2697192e-09 0.0077661745 0 -0.00066139302 0 0)
(-2.651409e-09 0.0055429 0 -0.00033697186 0 0)
(8.2282395e-10 0.0033212018 0 -0.00012105026 0 0)
(4.277115e-09 0.001105942 0 -1.3432661e-05 0 0)
(4.2474469e-09 -0.001105943 0 -1.3432654e-05 0 0)
(7.2542735e-10 -0.0033212022 0 -0.00012105021 0 0)
(-2.7554753e-09 -0.0055428997 0 -0.00033697176 0 0)
(-2.3228888e-09 -0.0077661737 0 -0.0006613929 0 0)
(-2.3497309e-09 0.0077661752 0 -0.00066139317 0 0)
(-2.4533679e-09 0.0055428997 0 -0.00033697194 0 0)
(7.8869221e-10 0.0033212007 0 -0.00012105022 0 0)
(4.1265902e-09 0.0011059416 0 -1.3432519e-05 0 0)
(4.0785392e-09 -0.0011059425 0 -1.3432497e-05 0 0)
(6.9113166e-10 -0.003321201 0 -0.00012105016 0 0)
(-2.5560448e-09 -0.0055428994 0 -0.00033697184 0 0)
(-2.4130565e-09 -0.0077661744 0 -0.00066139305 0 0)
(-2.115058e-09 0.0077661757 0 -0.00066139329 0 0)
(-2.4694719e-09 0.0055428993 0 -0.00033697202 0 0)
(7.7912477e-10 0.0033212002 0 -0.00012105019 0 0)
(3.9959787e-09 0.0011059412 0 -1.3432395e-05 0 0)
(3.9612259e-09 -0.0011059422 0 -1.3432381e-05 0 0)
(6.7260588e-10 -0.0033212005 0 -0.00012105012 0 0)
(-2.5801783e-09 -0.005542899 0 -0.00033697192 0 0)
(-2.1704731e-09 -0.0077661749 0 -0.00066139317 0 0)
(-2.1957693e-09 0.0077661764 0 -0.00066139343 0 0)
(-2.2791306e-09 0.0055428989 0 -0.0003369721 0 0)
(7.4678818e-10 0.0033211991 0 -0.00012105014 0 0)
(3.851437e-09 0.0011059408 0 -1.3432259e-05 0 0)
(3.7999383e-09 -0.0011059417 0 -1.3432232e-05 0 0)
(6.4085423e-10 -0.0033211994 0 -0.00012105007 0 0)
(-2.388014e-09 -0.0055428987 0 -0.000336972 0 0)
(-2.2610186e-09 -0.0077661756 0 -0.00066139331 0 0)
(-1.9672119e-09 0.0077661768 0 -0.00066139355 0 0)
(-2.2968693e-09 0.0055428986 0 -0.00033697218 0 0)
(7.3614209e-10 0.0033211986 0 -0.00012105012 0 0)
(3.7276163e-09 0.0011059404 0 -1.3432141e-05 0 0)
(3.68904e-09 -0.0011059414 0 -1.3432122e-05 0 0)
(6.2292828e-10 -0.003321199 0 -0.00012105004 0 0)
(-2.4128797e-09 -0.0055428983 0 -0.00033697207 0 0)
(-2.0247992e-09 -0.0077661761 0 -0.00066139343 0 0)
(-2.0489131e-09 0.0077661775 0 -0.00066139368 0 0)
(-2.114114e-09 0.0055428983 0 -0.00033697226 0 0)
(7.0547657e-10 0.0033211976 0 -0.00012105008 0 0)
(3.5892118e-09 0.0011059401 0 -1.3432012e-05 0 0)
(3.5355482e-09 -0.0011059409 0 -1.3431981e-05 0 0)
(5.9365368e-10 -0.003321198 0 -0.00012105 0 0)
(-2.2276862e-09 -0.005542898 0 -0.00033697215 0 0)
(-2.1158422e-09 -0.0077661767 0 -0.00066139356 0 0)
(-1.8264018e-09 0.0077661779 0 -0.00066139379 0 0)
(-2.1337262e-09 0.0055428979 0 -0.00033697233 0 0)
(6.9391265e-10 0.0033211972 0 -0.00012105005 0 0)
(3.4721217e-09 0.0011059397 0 -1.3431901e-05 0 0)
(3.4308986e-09 -0.0011059406 0 -1.3431877e-05 0 0)
(5.7636782e-10 -0.0033211975 0 -0.00012104997 0 0)
(-2.2534426e-09 -0.0055428977 0 -0.00033697222 0 0)
(-1.8857281e-09 -0.0077661771 0 -0.00066139368 0 0)
(-1.9093169e-09 0.0077661785 0 -0.00066139392 0 0)
(-1.9583565e-09 0.0055428977 0 -0.0003369724 0 0)