/*--------------------------------*- C++ -*----------------------------------*\
| =========                 |                                                 |
| \\      /  F ield         | OpenFOAM: The Open Source CFD Toolbox           |
|  \\    /   O peration     | Version:  5.x                                   |
|   \\  /    A nd           | Web:      www.OpenFOAM.org                      |
|    \\/     M anipulation  |                                                 |
\*---------------------------------------------------------------------------*/
FoamFile
{
    version     2.0;
    format      ascii;
    class       volVectorField;
    location    "9";
    object      U;
}
// * * * * * * * * * * * * * * * * * * * * * * * * * * * * * * * * * * * * * //

dimensions      [0 1 -1 0 0 0 0];

internalField   nonuniform List<vector> 
1920
(
(-2.4347237e-07 1.4442891e-07 0)
(-5.3913891e-07 6.3361602e-08 0)
(-8.4332232e-07 -2.995039e-08 0)
(-4.029014e-07 -8.4625733e-08 0)
(4.0357692e-07 -8.5768684e-08 0)
(8.4372778e-07 -2.8914923e-08 0)
(5.393628e-07 6.2676272e-08 0)
(2.4340078e-07 1.4467407e-07 0)
(-6.697366e-08 2.3461999e-07 0)
(-1.128896e-06 4.3109643e-07 0)
(-1.7935621e-06 -6.6914007e-08 0)
(-9.1187427e-07 -6.2528347e-07 0)
(9.1346908e-07 -6.2309506e-07 0)
(1.7949456e-06 -6.8476082e-08 0)
(1.1291366e-06 4.3260907e-07 0)
(6.7265452e-08 2.3424422e-07 0)
(-1.2755052e-07 6.1912026e-07 0)
(-1.6709858e-06 9.9216798e-07 0)
(-2.544051e-06 -1.477902e-07 0)
(-1.2100199e-06 -1.4421711e-06 0)
(1.2124285e-06 -1.4451691e-06 0)
(2.5455089e-06 -1.4436148e-07 0)
(1.6720579e-06 9.9081566e-07 0)
(1.273369e-07 6.2007891e-07 0)
(-1.8189567e-07 1.1074064e-06 0)
(-2.1160569e-06 1.6719231e-06 0)
(-2.9709066e-06 -2.7710567e-07 0)
(-1.4754631e-06 -2.5023299e-06 0)
(1.4779731e-06 -2.4977469e-06 0)
(2.9730538e-06 -2.7970127e-07 0)
(2.1166441e-06 1.6755016e-06 0)
(1.8223895e-07 1.1069444e-06 0)
(-2.4630106e-07 1.7039394e-06 0)
(-2.3049414e-06 2.4377436e-06 0)
(-3.2801949e-06 -4.5723671e-07 0)
(-1.525855e-06 -3.6844894e-06 0)
(1.5284356e-06 -3.6887757e-06 0)
(3.2818362e-06 -4.5153272e-07 0)
(2.3060993e-06 2.4363489e-06 0)
(2.4618071e-07 1.7057265e-06 0)
(-2.4236349e-07 2.3479552e-06 0)
(-2.4140262e-06 3.2199472e-06 0)
(-3.2823583e-06 -6.4286877e-07 0)
(-1.6156495e-06 -4.9294962e-06 0)
(1.6176524e-06 -4.9234256e-06 0)
(3.2840675e-06 -6.4564887e-07 0)
(2.4145929e-06 3.225109e-06 0)
(2.4258721e-07 2.3477082e-06 0)
(-2.599672e-07 2.9858918e-06 0)
(-2.3002003e-06 4.0010803e-06 0)
(-3.238738e-06 -8.4258477e-07 0)
(-1.4967791e-06 -6.1492246e-06 0)
(1.4982208e-06 -6.1539101e-06 0)
(3.2397018e-06 -8.3566021e-07 0)
(2.3008304e-06 4.000044e-06 0)
(2.5997322e-07 2.9882248e-06 0)
(-2.2260964e-07 3.5944012e-06 0)
(-2.1705596e-06 4.7311952e-06 0)
(-2.9536316e-06 -1.0209564e-06 0)
(-1.4495469e-06 -7.3127295e-06 0)
(1.4501559e-06 -7.3062988e-06 0)
(2.9541295e-06 -1.0234555e-06 0)
(2.1708047e-06 4.7369696e-06 0)
(2.2262492e-07 3.5944056e-06 0)
(-2.1194297e-07 4.1402402e-06 0)
(-1.8968642e-06 5.4036805e-06 0)
(-2.6864604e-06 -1.1915118e-06 0)
(-1.2453054e-06 -8.3589404e-06 0)
(1.2451045e-06 -8.3633094e-06 0)
(2.6863829e-06 -1.1846116e-06 0)
(1.8967466e-06 5.403024e-06 0)
(2.1204125e-07 4.1426468e-06 0)
(-1.6486443e-07 4.618118e-06 0)
(-1.6528934e-06 5.9887059e-06 0)
(-2.2809752e-06 -1.3282616e-06 0)
(-1.1206667e-06 -9.2869009e-06 0)
(1.1197646e-06 -9.2810996e-06 0)
(2.2802021e-06 -1.3303134e-06 0)
(1.6527422e-06 5.9940523e-06 0)
(1.647054e-07 4.6182475e-06 0)
(-1.4205215e-07 5.0150075e-06 0)
(-1.3443672e-06 6.4915439e-06 0)
(-1.9320847e-06 -1.4485439e-06 0)
(-9.0493435e-07 -1.0064378e-05 0)
(9.0332136e-07 -1.0068016e-05 0)
(1.9310806e-06 -1.4427054e-06 0)
(1.343653e-06 6.4910718e-06 0)
(1.4219307e-07 5.0170624e-06 0)
(-1.0163133e-07 5.3374524e-06 0)
(-1.0868464e-06 6.9006328e-06 0)
(-1.5370752e-06 -1.5356622e-06 0)
(-7.5709188e-07 -1.070948e-05 0)
(7.5508499e-07 -1.0704916e-05 0)
(1.535417e-06 -1.5373481e-06 0)
(1.0863866e-06 6.9048028e-06 0)
(1.0138729e-07 5.3375453e-06 0)
(-7.8079424e-08 5.5853922e-06 0)
(-8.2399117e-07 7.2300103e-06 0)
(-1.2111399e-06 -1.6066926e-06 0)
(-5.772519e-07 -1.1213327e-05 0)
(5.7477197e-07 -1.1216139e-05 0)
(1.2095421e-06 -1.6025015e-06 0)
(8.2296597e-07 7.2294627e-06 0)
(7.8216665e-08 5.5868455e-06 0)
(-5.0570947e-08 5.7716707e-06 0)
(-6.1290761e-07 7.4799393e-06 0)
(-9.0153677e-07 -1.6517632e-06 0)
(-4.4589675e-07 -1.160441e-05 0)
(4.4327458e-07 -1.1601281e-05 0)
(8.9943824e-07 -1.6533037e-06 0)
(6.1225418e-07 7.4825804e-06 0)
(5.0324047e-08 5.7715956e-06 0)
(-3.228999e-08 5.902559e-06 0)
(-4.2895723e-07 7.6679435e-06 0)
(-6.5405605e-07 -1.6855854e-06 0)
(-3.2080295e-07 -1.188719e-05 0)
(3.1789727e-07 -1.1889315e-05 0)
(6.5213444e-07 -1.6832086e-06 0)
(4.2783777e-07 7.6670679e-06 0)
(3.2390816e-08 5.90333e-06 0)
(-1.7518927e-08 5.9916923e-06 0)
(-2.8586199e-07 7.7994259e-06 0)
(-4.5095201e-07 -1.7022822e-06 0)
(-2.2463109e-07 -1.2090666e-05 0)
(2.2168189e-07 -1.2088888e-05 0)
(4.4867402e-07 -1.7039656e-06 0)
(2.8507187e-07 7.8004784e-06 0)
(1.7312227e-08 5.9913492e-06 0)
(-6.0230664e-09 6.0465519e-06 0)
(-1.7901518e-07 7.890875e-06 0)
(-2.9282413e-07 -1.7132554e-06 0)
(-1.5165063e-07 -1.2224063e-05 0)
(1.4852662e-07 -1.222577e-05 0)
(2.9068853e-07 -1.7126169e-06 0)
(1.7788625e-07 7.8894316e-06 0)
(6.0709327e-09 6.0466487e-06 0)
(-6.2005919e-10 6.0781813e-06 0)
(-9.7851757e-08 7.9480553e-06 0)
(-1.8173329e-07 -1.7146969e-06 0)
(-9.1690282e-08 -1.2310835e-05 0)
(8.8541038e-08 -1.2310183e-05 0)
(1.7936313e-07 -1.7168223e-06 0)
(9.6938343e-08 7.9475838e-06 0)
(4.6050287e-10 6.0774797e-06 0)
(5.3344697e-09 6.0924176e-06 0)
(-4.841427e-08 7.9837286e-06 0)
(-9.6442339e-08 -1.7145586e-06 0)
(-5.745228e-08 -1.2359302e-05 0)
(5.4195421e-08 -1.2360869e-05 0)
(9.4153208e-08 -1.7155022e-06 0)
(4.7291693e-08 7.9814961e-06 0)
(-5.3397305e-09 6.0918663e-06 0)
(5.2854831e-09 6.096583e-06 0)
(-1.0725921e-08 8.0018815e-06 0)
(-4.8589921e-08 -1.7101005e-06 0)
(-2.5117794e-08 -1.2385415e-05 0)
(2.1864751e-08 -1.2385673e-05 0)
(4.6191049e-08 -1.7129247e-06 0)
(9.7186335e-09 7.9999773e-06 0)
(-5.4072659e-09 6.0954415e-06 0)
(7.865691e-09 6.0940994e-06 0)
(4.1989888e-09 8.0109032e-06 0)
(-1.0614639e-08 -1.7063164e-06 0)
(-1.4562906e-08 -1.2394466e-05 0)
(1.1326035e-08 -1.2396118e-05 0)
(8.285462e-09 -1.708678e-06 0)
(-5.2856957e-09 8.0077198e-06 0)
(-7.9113958e-09 6.0929259e-06 0)
(5.4077572e-09 6.0889873e-06 0)
(1.7439255e-08 8.012747e-06 0)
(1.6717435e-09 -1.7011366e-06 0)
(9.0602889e-10 -1.2395713e-05 0)
(-4.0328493e-09 -1.2396685e-05 0)
(-3.9505481e-09 -1.7048113e-06 0)
(-1.8454313e-08 8.0095211e-06 0)
(-5.4998967e-09 6.0873585e-06 0)
(6.499549e-09 6.082694e-06 0)
(1.5819198e-08 8.0121438e-06 0)
(1.4782834e-08 -1.6973977e-06 0)
(-4.2367657e-10 -1.239154e-05 0)
(-2.5160454e-09 -1.239341e-05 0)
(-1.6928624e-08 -1.700994e-06 0)
(-1.6787399e-08 8.0079647e-06 0)
(-6.5652417e-09 6.0809456e-06 0)
(3.4408096e-09 6.076987e-06 0)
(1.8426323e-08 8.0096142e-06 0)
(1.1131855e-08 -1.6935638e-06 0)
(6.7990637e-09 -1.2386548e-05 0)
(-9.46982e-09 -1.2388076e-05 0)
(-1.3057138e-08 -1.6980921e-06 0)
(-1.9319001e-08 8.0052424e-06 0)
(-3.504121e-09 6.0748885e-06 0)
(4.2071847e-09 6.0721472e-06 0)
(1.1174326e-08 8.0074347e-06 0)
(1.4212416e-08 -1.6911099e-06 0)
(8.9695738e-10 -1.2381225e-05 0)
(-3.1910705e-09 -1.2383338e-05 0)
(-1.5910084e-08 -1.6957005e-06 0)
(-1.1911644e-08 8.0023693e-06 0)
(-4.2718571e-09 6.0699196e-06 0)
(1.3490511e-09 6.0687129e-06 0)
(1.0906786e-08 8.0054053e-06 0)
(5.664291e-09 -1.6889526e-06 0)
(5.1476666e-09 -1.2377483e-05 0)
(-7.0289974e-09 -1.2379407e-05 0)
(-6.9954764e-09 -1.6941822e-06 0)
(-1.1548084e-08 8.0001583e-06 0)
(-1.379743e-09 6.0662388e-06 0)
(2.2997504e-09 6.0664694e-06 0)
(3.1860831e-09 8.0044372e-06 0)
(6.4238913e-09 -1.6878153e-06 0)
(-1.7120424e-09 -1.2374926e-05 0)
(3.4016166e-10 -1.2377231e-05 0)
(-7.4570007e-09 -1.69309e-06 0)
(-3.5984458e-09 7.998739e-06 0)
(-2.3476926e-09 6.0639125e-06 0)
(-1.5684302e-10 6.0654346e-06 0)
(3.3395811e-09 8.0041078e-06 0)
(-2.1850621e-09 -1.6869713e-06 0)
(2.0868376e-09 -1.2374189e-05 0)
(-2.9697006e-09 -1.2376349e-05 0)
(1.5987313e-09 -1.6926313e-06 0)
(-3.6488383e-09 7.9983389e-06 0)
(1.6137992e-10 6.0627396e-06 0)
(1.0901396e-09 6.0652894e-06 0)
(-3.1606654e-09 8.0047017e-06 0)
(-7.4107281e-10 -1.6867799e-06 0)
(-4.3971487e-09 -1.237463e-05 0)
(4.0663933e-09 -1.2377023e-05 0)
(4.6481855e-10 -1.6923835e-06 0)
(3.1111512e-09 7.9987144e-06 0)
(-1.1141038e-09 6.0625873e-06 0)
(-1.0251915e-09 6.065911e-06 0)
(-1.7525051e-09 8.00582e-06 0)
(-8.0129927e-09 -1.6867667e-06 0)
(-1.9842223e-10 -1.2376408e-05 0)
(3.420425e-10 -1.2378647e-05 0)
(8.1877558e-09 -1.6925316e-06 0)
(1.7867627e-09 7.9999148e-06 0)
(1.0629785e-09 6.063176e-06 0)
(4.606976e-10 6.0670371e-06 0)
(-6.9401106e-09 8.0075256e-06 0)
(-5.2662357e-09 -1.6871371e-06 0)
(-6.0790104e-09 -1.2378934e-05 0)
(6.7255363e-09 -1.2381294e-05 0)
(5.7005114e-09 -1.6927165e-06 0)
(7.2264472e-09 8.0016103e-06 0)
(-4.6147575e-10 6.0643754e-06 0)
(-1.4363878e-09 6.0685586e-06 0)
(-4.4500296e-09 8.0095171e-06 0)
(-1.1257079e-08 -1.6875749e-06 0)
(-1.4002132e-09 -1.2382256e-05 0)
(2.4281123e-09 -1.2384434e-05 0)
(1.208395e-08 -1.6931301e-06 0)
(4.7769557e-09 8.0038323e-06 0)
(1.5006842e-09 6.0659533e-06 0)
(1.9557846e-10 6.0703013e-06 0)
(-8.7246276e-09 8.0118161e-06 0)
(-7.4770327e-09 -1.6882309e-06 0)
(-6.8343871e-09 -1.2385918e-05 0)
(8.2507872e-09 -1.2388135e-05 0)
(8.4682689e-09 -1.6934841e-06 0)
(9.2700322e-09 8.0062861e-06 0)
(-1.7945429e-10 6.0678361e-06 0)
(-1.5854649e-09 6.0722079e-06 0)
(-5.5569926e-09 8.0142112e-06 0)
(-1.2628444e-08 -1.6888775e-06 0)
(-1.838059e-09 -1.2389987e-05 0)
(3.497699e-09 -1.2391995e-05 0)
(1.391782e-08 -1.6939703e-06 0)
(6.0869915e-09 8.0090257e-06 0)
(1.6667592e-09 6.0698632e-06 0)
(1.1847139e-10 6.0741731e-06 0)
(-9.3229504e-09 8.0167431e-06 0)
(-8.2412741e-09 -1.689652e-06 0)
(-7.0306032e-09 -1.2394129e-05 0)
(8.9362937e-09 -1.2396121e-05 0)
(9.5819738e-09 -1.6943615e-06 0)
(1.002685e-08 8.0118224e-06 0)
(-9.4012146e-11 6.0720116e-06 0)
(-1.6096267e-09 6.0761843e-06 0)
(-5.8138191e-09 8.0192594e-06 0)
(-1.295052e-08 -1.6903714e-06 0)
(-1.8883414e-09 -1.239845e-05 0)
(3.8898119e-09 -1.2400216e-05 0)
(1.4486647e-08 -1.6948376e-06 0)
(6.4458296e-09 8.0147492e-06 0)
(1.6981381e-09 6.0741789e-06 0)
(1.2092824e-10 6.0781772e-06 0)
(-9.3427162e-09 8.0218292e-06 0)
(-8.2825925e-09 -1.6911735e-06 0)
(-6.9819951e-09 -1.2402699e-05 0)
(9.0917653e-09 -1.2404419e-05 0)
(9.7629048e-09 -1.6952178e-06 0)
(1.0105473e-08 8.0176382e-06 0)
(-9.6329018e-11 6.0763727e-06 0)
(-1.5858973e-09 6.0801677e-06 0)
(-5.6996937e-09 8.0243306e-06 0)
(-1.2800314e-08 -1.6918955e-06 0)
(-1.8064546e-09 -1.2407013e-05 0)
(3.8824049e-09 -1.2408505e-05 0)
(1.4385763e-08 -1.6956631e-06 0)
(6.3426871e-09 8.0205683e-06 0)
(1.6734767e-09 6.0785289e-06 0)
(1.48136e-10 6.082111e-06 0)
(-9.1374638e-09 8.0268545e-06 0)
(-8.0422242e-09 -1.692679e-06 0)
(-6.8735295e-09 -1.241119e-05 0)
(8.9460528e-09 -1.2412625e-05 0)
(9.485891e-09 -1.6960258e-06 0)
(9.8771247e-09 8.0234178e-06 0)
(-1.2963953e-10 6.0806687e-06 0)
(-1.5501641e-09 6.0840382e-06 0)
(-5.4660404e-09 8.0292914e-06 0)
(-1.2494602e-08 -1.6933698e-06 0)
(-1.7199495e-09 -1.2415382e-05 0)
(3.661733e-09 -1.24166e-05 0)
(1.3976651e-08 -1.6964461e-06 0)
(6.0511974e-09 8.0262623e-06 0)
(1.6312119e-09 6.082751e-06 0)
(1.7742548e-10 6.0859118e-06 0)
(-8.8766265e-09 8.0317445e-06 0)
(-7.7366984e-09 -1.6941127e-06 0)
(-6.7845809e-09 -1.2419416e-05 0)
(8.6463615e-09 -1.2420582e-05 0)
(9.0183427e-09 -1.6968005e-06 0)
(9.53643e-09 8.0290123e-06 0)
(-1.6878362e-10 6.0848008e-06 0)
(-1.5157505e-09 6.0877693e-06 0)
(-5.2206437e-09 8.0341077e-06 0)
(-1.2172916e-08 -1.6947577e-06 0)
(-1.6710079e-09 -1.2423448e-05 0)
(3.3415982e-09 -1.2424418e-05 0)
(1.3452486e-08 -1.6972084e-06 0)
(5.7049461e-09 8.031735e-06 0)
(1.5872816e-09 6.0867901e-06 0)
(2.0203993e-10 6.0895752e-06 0)
(-8.6244886e-09 8.0364898e-06 0)
(-7.4478581e-09 -1.6954508e-06 0)
(-6.7322525e-09 -1.2427321e-05 0)
(8.2811161e-09 -1.242825e-05 0)
(8.4950149e-09 -1.6975652e-06 0)
(9.173062e-09 8.0343636e-06 0)
(-2.0470373e-10 6.0887424e-06 0)
(-1.4856668e-09 6.0913688e-06 0)
(-4.9968422e-09 8.0387848e-06 0)
(-1.1878325e-08 -1.6960455e-06 0)
(-1.658176e-09 -1.2431187e-05 0)
(2.9882143e-09 -1.2431947e-05 0)
(1.2906469e-08 -1.6979718e-06 0)
(5.3607739e-09 8.0369551e-06 0)
(1.5468526e-09 6.090638e-06 0)
(2.2169193e-10 6.0931142e-06 0)
(-8.3952649e-09 8.0411023e-06 0)
(-7.1914595e-09 -1.6966865e-06 0)
(-6.7056293e-09 -1.2434901e-05 0)
(7.9012336e-09 -1.2435638e-05 0)
(7.97708e-09 -1.6983384e-06 0)
(8.8224519e-09 8.0394591e-06 0)
(-2.3536877e-10 6.0924968e-06 0)
(-1.4591646e-09 6.0948507e-06 0)
(-4.7960379e-09 8.043336e-06 0)
(-1.1611052e-08 -1.6972316e-06 0)
(-1.6640248e-09 -1.2438608e-05 0)
(2.6386112e-09 -1.2439204e-05 0)
(1.2378744e-08 -1.6987496e-06 0)
(5.0383072e-09 8.0419219e-06 0)
(1.5106727e-09 6.0943044e-06 0)
(2.3798788e-10 6.0965418e-06 0)
(-8.1840221e-09 8.0455943e-06 0)
(-6.9577178e-09 -1.6978223e-06 0)
(-6.6861985e-09 -1.2442171e-05 0)
(7.5346344e-09 -1.2442763e-05 0)
(7.4884825e-09 -1.699129e-06 0)
(8.4949705e-09 8.0443062e-06 0)
(-2.6128569e-10 6.0960768e-06 0)
(-1.4346816e-09 6.0982257e-06 0)
(-4.6095203e-09 8.0477711e-06 0)
(-1.1357546e-08 -1.6983211e-06 0)
(-1.6697392e-09 -1.2445728e-05 0)
(2.3121446e-09 -1.2446208e-05 0)
(1.18834e-08 -1.6995467e-06 0)
(4.7410367e-09 8.0466478e-06 0)
(1.4780341e-09 6.0978034e-06 0)
(2.525944e-10 6.0998658e-06 0)
(-7.9813915e-09 8.0499721e-06 0)
(-6.7313567e-09 -1.6988654e-06 0)
(-6.6575954e-09 -1.244915e-05 0)
(7.1951826e-09 -1.2449642e-05 0)
(7.0355796e-09 -1.6999383e-06 0)
(8.1906864e-09 8.04892e-06 0)
(-2.8358759e-10 6.0994962e-06 0)
(-1.4109074e-09 6.1014991e-06 0)
(-4.4279209e-09 8.0520926e-06 0)
(-1.1103688e-08 -1.6993229e-06 0)
(-1.6610893e-09 -1.2452566e-05 0)
(2.0173798e-09 -1.245297e-05 0)
(1.1422527e-08 -1.700361e-06 0)
(4.4663747e-09 8.0511489e-06 0)
(1.4479674e-09 6.101148e-06 0)
(2.6670228e-10 6.1030891e-06 0)
(-7.7793412e-09 8.0542353e-06 0)
(-6.4997077e-09 -1.6998256e-06 0)
(-6.6089208e-09 -1.2455854e-05 0)
(6.8881338e-09 -1.2456285e-05 0)
(6.6169592e-09 -1.7007616e-06 0)
(7.9061308e-09 8.0533168e-06 0)
(-3.0335102e-10 6.1027672e-06 0)
(-1.3870172e-09 6.1046714e-06 0)
(-4.2443796e-09 8.0562977e-06 0)
(-1.0839415e-08 -1.7002471e-06 0)
(-1.6297375e-09 -1.2459135e-05 0)
(1.7563083e-09 -1.24595e-05 0)
(1.0993114e-08 -1.7011858e-06 0)
(4.2100306e-09 8.0554412e-06 0)
(1.419637e-09 6.1043493e-06 0)
(2.8100315e-10 6.1062104e-06 0)
(-7.5727007e-09 8.0583788e-06 0)
(-6.2548587e-09 -1.7007133e-06 0)
(-6.5348361e-09 -1.2462294e-05 0)
(6.6135744e-09 -1.2462696e-05 0)
(6.228149e-09 -1.7015911e-06 0)
(7.637137e-09 8.057512e-06 0)
(-3.2142051e-10 6.1058994e-06 0)
(-1.3626081e-09 6.1077404e-06 0)
(-4.0549652e-09 8.0603796e-06 0)
(-1.0559356e-08 -1.701104e-06 0)
(-1.5724617e-09 -1.2465444e-05 0)
(1.5270696e-09 -1.2465798e-05 0)
(1.0590344e-08 -1.7020128e-06 0)
(3.9677482e-09 8.059539e-06 0)
(1.392423e-09 6.1074155e-06 0)
(2.9581616e-10 6.1092268e-06 0)
(-7.3589776e-09 8.0623951e-06 0)
(-5.9933001e-09 -1.7015386e-06 0)
(-6.4343831e-09 -1.2468479e-05 0)
(6.3686888e-09 -1.2468876e-05 0)
(5.8638456e-09 -1.7024179e-06 0)
(7.3799231e-09 8.0615188e-06 0)
(-3.3840765e-10 6.1089e-06 0)
(-1.3375669e-09 6.1107025e-06 0)
(-3.8581269e-09 8.06433e-06 0)
(-1.0261983e-08 -1.7019033e-06 0)
(-1.4897292e-09 -1.2471501e-05 0)
(1.3257755e-09 -1.2471864e-05 0)
(1.0209157e-08 -1.7028329e-06 0)
(3.7359162e-09 8.0634541e-06 0)
(1.3659019e-09 6.110353e-06 0)
(3.112231e-10 6.1121343e-06 0)
(-7.1376705e-09 8.0662756e-06 0)
(-5.7147891e-09 -1.7023107e-06 0)
(-6.3095384e-09 -1.2474413e-05 0)
(6.1492783e-09 -1.2474823e-05 0)
(5.5189727e-09 -1.7032333e-06 0)
(7.1314383e-09 8.0653478e-06 0)
(-3.5473468e-10 6.1117744e-06 0)
(-1.3119537e-09 6.1135537e-06 0)
(-3.6539574e-09 8.0681406e-06 0)
(-9.948406e-09 -1.7026533e-06 0)
(-1.3842962e-09 -1.2477309e-05 0)
(1.1477334e-09 -1.2477696e-05 0)
(9.8449891e-09 -1.7036376e-06 0)
(3.5117238e-09 8.0671962e-06 0)
(1.3398059e-09 6.1131663e-06 0)
(3.2717137e-10 6.1149291e-06 0)
(-6.9095689e-09 8.0700123e-06 0)
(-5.4211825e-09 -1.7030373e-06 0)
(-6.1639477e-09 -1.24801e-05 0)
(5.950759e-09 -1.2480535e-05 0)
(5.1891647e-09 -1.7040294e-06 0)
(6.8894174e-09 8.0690074e-06 0)
(-3.7067899e-10 6.1145264e-06 0)
(-1.2859182e-09 6.1162906e-06 0)
(-3.4435546e-09 8.0718039e-06 0)
(-9.6213189e-09 -1.7033611e-06 0)
(-1.2600904e-09 -1.2482871e-05 0)
(9.8823246e-10 -1.248329e-05 0)
(9.4940866e-09 -1.7044198e-06 0)
(3.2931403e-09 8.0707726e-06 0)
(1.3139845e-09 6.1158585e-06 0)
(3.4354162e-10 6.1176081e-06 0)
(-6.6761972e-09 8.0735986e-06 0)
(-5.1154974e-09 -1.7037246e-06 0)
(-6.0019774e-09 -1.2485542e-05 0)
(5.7687762e-09 -1.2486007e-05 0)
(4.8709534e-09 -1.7047996e-06 0)
(6.6523205e-09 8.0725044e-06 0)
(-3.864097e-10 6.1171588e-06 0)
(-1.2596482e-09 6.1189104e-06 0)
(-3.2285479e-09 8.075314e-06 0)
(-9.2841918e-09 -1.7040322e-06 0)
(-1.1214236e-09 -1.2488191e-05 0)
(8.430059e-10 -1.2488644e-05 0)
(9.1536011e-09 -1.7051736e-06 0)
(3.0788254e-09 8.0741893e-06 0)
(1.2883737e-09 6.1184323e-06 0)
(3.6018849e-10 6.1201689e-06 0)
(-6.4394234e-09 8.0770295e-06 0)
(-4.8012427e-09 -1.7043776e-06 0)
(-5.8280797e-09 -1.2490742e-05 0)
(5.5995387e-09 -1.2491239e-05 0)
(4.5617854e-09 -1.7055389e-06 0)
(6.4192285e-09 8.0758439e-06 0)
(-4.0201581e-10 6.1196737e-06 0)
(-1.233338e-09 6.1214112e-06 0)
(-3.0107797e-09 8.0786669e-06 0)
(-8.9407293e-09 -1.704671e-06 0)
(-9.7249261e-10 -1.2493268e-05 0)
(7.0845709e-10 -1.2493757e-05 0)
(8.8215522e-09 -1.7058948e-06 0)
(2.8680137e-09 8.0774507e-06 0)
(1.2629709e-09 6.1208895e-06 0)
(3.7696341e-10 6.1226102e-06 0)
(-6.2012032e-09 8.0803016e-06 0)
(-4.4819843e-09 -1.7049999e-06 0)
(-5.6464122e-09 -1.2495702e-05 0)
(5.4399578e-09 -1.249623e-05 0)
(4.2599441e-09 -1.7062437e-06 0)
(6.1897235e-09 8.0790299e-06 0)
(-4.1752842e-10 6.122073e-06 0)
(-1.207173e-09 6.1237923e-06 0)
(-2.792103e-09 8.08186e-06 0)
(-8.5945294e-09 -1.7052805e-06 0)
(-8.1709958e-10 -1.2498107e-05 0)
(5.8172699e-10 -1.2498629e-05 0)
(8.496719e-09 -1.7065802e-06 0)
(2.660394e-09 8.0805607e-06 0)
(1.2378157e-09 6.1232319e-06 0)
(3.9372651e-10 6.1249318e-06 0)
(-5.9634236e-09 8.0834135e-06 0)
(-4.1610849e-09 -1.7055944e-06 0)
(-5.4606416e-09 -1.2500424e-05 0)
(5.2876578e-09 -1.250098e-05 0)
(3.9644209e-09 -1.7069117e-06 0)
(5.9637689e-09 8.082066e-06 0)
(-4.3293857e-10 6.1243584e-06 0)
(-1.1813206e-09 6.1260538e-06 0)
(-2.5742618e-09 8.0848926e-06 0)
(-8.2488904e-09 -1.7058633e-06 0)
(-6.5852342e-10 -1.250271e-05 0)
(4.6066163e-10 -1.250326e-05 0)
(8.1784997e-09 -1.7072282e-06 0)
(2.4559926e-09 8.0835225e-06 0)
(1.2129739e-09 6.1254611e-06 0)
(4.1035234e-10 6.1271343e-06 0)
(-5.7278139e-09 8.0863651e-06 0)
(-3.8415643e-09 -1.706163e-06 0)
(-5.2738699e-09 -1.2504911e-05 0)
(5.1409126e-09 -1.250549e-05 0)
(3.6747676e-09 -1.7075414e-06 0)
(5.7415998e-09 8.0849554e-06 0)
(-4.4821128e-10 6.1265315e-06 0)
(-1.1559275e-09 6.1281968e-06 0)
(-2.3588271e-09 8.0877655e-06 0)
(-7.9067149e-09 -1.7064208e-06 0)
(-4.994878e-10 -1.250708e-05 0)
(3.4372592e-10 -1.2507653e-05 0)
(7.8667634e-09 -1.7078377e-06 0)
(2.2550693e-09 8.0863391e-06 0)
(1.1885259e-09 6.1275791e-06 0)
(4.2673172e-10 6.129219e-06 0)
(-5.4959012e-09 8.0891579e-06 0)
(-3.5260379e-09 -1.7067071e-06 0)
(-5.0886345e-09 -1.2509168e-05 0)
(4.9985457e-09 -1.2509764e-05 0)
(3.3909506e-09 -1.7081325e-06 0)
(5.523626e-09 8.0877009e-06 0)
(-4.6329639e-10 6.1285944e-06 0)
(-1.1311187e-09 6.1302232e-06 0)
(-2.1471661e-09 8.0904808e-06 0)
(-7.5704764e-09 -1.7069542e-06 0)
(-3.4218488e-10 -1.2511222e-05 0)
(2.2989534e-10 -1.2511811e-05 0)
(7.5617107e-09 -1.7084089e-06 0)
(2.0580282e-09 8.0890135e-06 0)
(1.1645565e-09 6.1295877e-06 0)
(4.4277211e-10 6.1311882e-06 0)
(-5.268992e-09 8.0917945e-06 0)
(-3.2167037e-09 -1.7072275e-06 0)
(-4.9069496e-09 -1.2513198e-05 0)
(4.8598193e-09 -1.2513806e-05 0)
(3.1132195e-09 -1.7086853e-06 0)
(5.3103525e-09 8.0903057e-06 0)
(-4.7813711e-10 6.1305491e-06 0)
(-1.1069981e-09 6.1321353e-06 0)
(-1.940434e-09 8.0930415e-06 0)
(-7.2422218e-09 -1.7074642e-06 0)
(-1.8832656e-10 -1.251514e-05 0)
(1.1854574e-10 -1.251574e-05 0)
(7.2637528e-09 -1.7089423e-06 0)
(1.8653463e-09 8.0915489e-06 0)
(1.1411489e-09 6.1314893e-06 0)
(4.5839716e-10 6.1330447e-06 0)
(-5.0481721e-09 8.0942784e-06 0)
(-2.9153552e-09 -1.7077249e-06 0)
(-4.7303656e-09 -1.2517007e-05 0)
(4.7243297e-09 -1.2517621e-05 0)
(2.8419955e-09 -1.7092006e-06 0)
(5.1023165e-09 8.0927731e-06 0)
(-4.9267597e-10 6.1323981e-06 0)
(-1.0836494e-09 6.1339363e-06 0)
(-1.7395771e-09 8.0954517e-06 0)
(-6.9235943e-09 -1.7079515e-06 0)
(-3.9206944e-11 -1.251884e-05 0)
(9.3522789e-12 -1.2519445e-05 0)
(6.9734125e-09 -1.7094388e-06 0)
(1.677518e-09 8.0939486e-06 0)
(1.1183795e-09 6.1332865e-06 0)
(4.7354561e-10 6.1347917e-06 0)
(-4.8343145e-09 8.0966142e-06 0)
(-2.6234103e-09 -1.7081998e-06 0)
(-4.5600332e-09 -1.2520602e-05 0)
(4.5919134e-09 -1.2521216e-05 0)
(2.5777834e-09 -1.7096797e-06 0)
(4.9000404e-09 8.0951064e-06 0)
(-5.0685905e-10 6.1341441e-06 0)
(-1.0611376e-09 6.1356296e-06 0)
(-1.5453444e-09 8.0977161e-06 0)
(-6.6158672e-09 -1.7084163e-06 0)
(1.0423454e-10 -1.2522328e-05 0)
(-9.7796134e-11 -1.2522933e-05 0)
(6.6912474e-09 -1.7099e-06 0)
(1.4950139e-09 8.0962161e-06 0)
(1.0963148e-09 6.1349822e-06 0)
(4.8817007e-10 6.136433e-06 0)
(-4.6280934e-09 8.0988069e-06 0)
(-2.3419462e-09 -1.7086525e-06 0)
(-4.3967661e-09 -1.2523987e-05 0)
(4.462571e-09 -1.2524597e-05 0)
(2.3211041e-09 -1.7101241e-06 0)
(4.7039989e-09 8.0973093e-06 0)
(-5.2063875e-10 6.1357901e-06 0)
(-1.0395108e-09 6.1372191e-06 0)
(-1.3583026e-09 8.09984e-06 0)
(-6.3199814e-09 -1.7088591e-06 0)
(2.4135438e-10 -1.2525611e-05 0)
(-2.0286702e-10 -1.2526211e-05 0)
(6.4177938e-09 -1.7103274e-06 0)
(1.3182541e-09 8.0983553e-06 0)
(1.0750099e-09 6.1365794e-06 0)
(5.0223592e-10 6.1379724e-06 0)
(-4.4300019e-09 8.1008618e-06 0)
(-2.071737e-09 -1.7090833e-06 0)
(-4.2410984e-09 -1.2527171e-05 0)
(4.3364059e-09 -1.2527773e-05 0)
(2.0724462e-09 -1.7105355e-06 0)
(4.5145973e-09 8.0993858e-06 0)
(-5.3397528e-10 6.1373393e-06 0)
(-1.0188015e-09 6.1387089e-06 0)
(-1.1788526e-09 8.1018291e-06 0)
(-6.0365839e-09 -1.7092801e-06 0)
(3.717523e-10 -1.2528696e-05 0)
(-3.0573895e-10 -1.2529287e-05 0)
(6.1535274e-09 -1.7107228e-06 0)
(1.1475895e-09 8.1003702e-06 0)
(1.0545079e-09 6.1380814e-06 0)
(5.1571988e-10 6.1394141e-06 0)
(-4.2403695e-09 8.1027848e-06 0)
(-1.813291e-09 -1.7094926e-06 0)
(-4.0933343e-09 -1.2530161e-05 0)
(4.2135782e-09 -1.253075e-05 0)
(1.8322332e-09 -1.7109157e-06 0)
(4.3321592e-09 8.1013401e-06 0)
(-5.4683733e-10 6.138795e-06 0)
(-9.9902864e-10 6.1401031e-06 0)
(-1.0072483e-09 8.1036891e-06 0)
(-5.7660659e-09 -1.7096796e-06 0)
(4.952255e-10 -1.2531591e-05 0)
(-4.0624324e-10 -1.2532169e-05 0)
(5.8988387e-09 -1.711088e-06 0)
(9.8329329e-10 8.102265e-06 0)
(1.0348398e-09 6.1394917e-06 0)
(5.2860899e-10 6.1407624e-06 0)
(-4.0593815e-09 8.1045819e-06 0)
(-1.5668865e-09 -1.7098806e-06 0)
(-3.9535921e-09 -1.2532965e-05 0)
(4.0942692e-09 -1.2533538e-05 0)
(1.6008039e-09 -1.7112667e-06 0)
(4.1569212e-09 8.1031765e-06 0)
(-5.5920215e-10 6.1401609e-06 0)
(-9.8019868e-10 6.1414062e-06 0)
(-8.4361316e-10 8.1054262e-06 0)
(-5.5085984e-09 -1.7100579e-06 0)
(6.1172963e-10 -1.2534304e-05 0)
(-5.0419453e-10 -1.2534865e-05 0)
(5.6540191e-09 -1.7114249e-06 0)
(8.2555691e-10 8.1040442e-06 0)
(1.0160252e-09 6.140814e-06 0)
(5.4089917e-10 6.1420218e-06 0)
(-3.8870971e-09 8.106259e-06 0)
(-1.3326052e-09 -1.7102477e-06 0)
(-3.8218417e-09 -1.253559e-05 0)
(3.9786575e-09 -1.2536144e-05 0)
(1.3784016e-09 -1.7115902e-06 0)
(3.9890326e-09 8.1048995e-06 0)
(-5.7105543e-10 6.1414406e-06 0)
(-9.6230764e-10 6.1426224e-06 0)
(-6.8795898e-10 8.1070464e-06 0)
(-5.2641657e-09 -1.7104156e-06 0)
(7.2134517e-10 -1.2536842e-05 0)
(-5.9941229e-10 -1.2537384e-05 0)
(5.4192551e-09 -1.7117355e-06 0)
(6.7449132e-10 8.1057124e-06 0)
(9.9807288e-10 6.1420519e-06 0)
(5.525941e-10 6.1431965e-06 0)
(-3.7234676e-09 8.1078223e-06 0)
(-1.1103638e-09 -1.7105944e-06 0)
(-3.6979362e-09 -1.2538044e-05 0)
(3.8669019e-09 -1.2538578e-05 0)
(1.1651705e-09 -1.7118882e-06 0)
(3.828559e-09 8.1065136e-06 0)
(-5.823905e-10 6.1426377e-06 0)
(-9.4534255e-10 6.1437562e-06 0)
(-5.4020166e-10 8.1085557e-06 0)
(-5.0325964e-09 -1.7107529e-06 0)
(8.2424962e-10 -1.2539213e-05 0)
(-6.9173595e-10 -1.2539735e-05 0)
(5.1946293e-09 -1.7120214e-06 0)
(5.3013113e-10 8.107274e-06 0)
(9.8098207e-10 6.1432091e-06 0)
(5.6370417e-10 6.1442909e-06 0)
(-3.5683529e-09 8.1092778e-06 0)
(-8.99942e-10 -1.710921e-06 0)
(-3.5816386e-09 -1.2540336e-05 0)
(3.7591303e-09 -1.2540847e-05 0)
(9.6115815e-10 -1.7121624e-06 0)
(3.6754882e-09 8.1080235e-06 0)
(-5.9320777e-10 6.143756e-06 0)
(-9.2928274e-10 6.1448118e-06 0)
(-4.0017699e-10 8.10996e-06 0)
(-4.8135912e-09 -1.7110705e-06 0)
(9.2069359e-10 -1.2541425e-05 0)
(-7.8103429e-10 -1.2541926e-05 0)
(4.9801248e-09 -1.7122844e-06 0)
(3.9244038e-10 8.1087337e-06 0)
(9.647436e-10 6.1442893e-06 0)
(5.7424531e-10 6.1453092e-06 0)
(-3.4215375e-09 8.1106313e-06 0)
(-7.0100851e-10 -1.7112282e-06 0)
(-3.4726452e-09 -1.2542472e-05 0)
(3.6554339e-09 -1.2542961e-05 0)
(7.6632013e-10 -1.7124146e-06 0)
(3.5297378e-09 8.1094339e-06 0)
(-6.035137e-10 6.1447991e-06 0)
(-9.1410134e-10 6.1457934e-06 0)
(-2.6765514e-10 8.1112652e-06 0)
(-4.6067482e-09 -1.7113687e-06 0)
(1.0109812e-09 -1.2543487e-05 0)
(-8.6721076e-10 -1.2543965e-05 0)
(4.7756327e-09 -1.7125263e-06 0)
(2.613201e-10 8.1100962e-06 0)
(9.4934112e-10 6.1452961e-06 0)
(5.8423804e-10 6.1462555e-06 0)
(-3.2827445e-09 8.1118884e-06 0)
(-5.1314368e-10 -1.7115164e-06 0)
(-3.3706039e-09 -1.2544461e-05 0)
(3.5558639e-09 -1.2544927e-05 0)
(5.8052828e-10 -1.7126462e-06 0)
(3.3911634e-09 8.1107492e-06 0)
(-6.1332016e-10 6.1457708e-06 0)
(-8.997664e-10 6.146705e-06 0)
(-1.4235332e-10 8.1124767e-06 0)
(-4.4115852e-09 -1.7116483e-06 0)
(1.0954537e-09 -1.2545405e-05 0)
(-9.5020609e-10 -1.254586e-05 0)
(4.5809619e-09 -1.7127484e-06 0)
(1.3661583e-10 8.111366e-06 0)
(9.3475207e-10 6.1462333e-06 0)
(5.937066e-10 6.1471337e-06 0)
(-3.1516487e-09 8.1130545e-06 0)
(-3.3585949e-10 -1.7117862e-06 0)
(-3.2751298e-09 -1.2546311e-05 0)
(3.4604312e-09 -1.2546752e-05 0)
(4.0357956e-10 -1.712859e-06 0)
(3.2595673e-09 8.1119741e-06 0)
(-6.2264363e-10 6.1466745e-06 0)
(-8.8624209e-10 6.1475504e-06 0)
(-2.3947767e-11 8.1135999e-06 0)
(-4.2275588e-09 -1.7119097e-06 0)
(1.1744762e-09 -1.2547187e-05 0)
(-1.0299985e-09 -1.2547618e-05 0)
(4.395849e-09 -1.7129523e-06 0)
(1.8126027e-11 8.1125475e-06 0)
(9.2094893e-10 6.1471043e-06 0)
(6.0267804e-10 6.1479477e-06 0)
(-3.0278882e-09 8.1141349e-06 0)
(-1.686175e-10 -1.7120383e-06 0)
(-3.1858185e-09 -1.2548028e-05 0)
(3.3691082e-09 -1.2548446e-05 0)
(2.3520574e-10 -1.7130541e-06 0)
(3.1347068e-09 8.1131128e-06 0)
(-6.315041e-10 6.1475137e-06 0)
(-8.7348967e-10 6.1483334e-06 0)
(8.7916212e-11 8.1146397e-06 0)
(-4.054082e-09 -1.7121536e-06 0)
(1.2484268e-09 -1.254884e-05 0)
(-1.1066022e-09 -1.2549248e-05 0)
(4.2199687e-09 -1.7131394e-06 0)
(-9.4390554e-11 8.113645e-06 0)
(9.0790015e-10 6.1479124e-06 0)
(6.1118167e-10 6.1487009e-06 0)
(-2.9110738e-09 8.1151344e-06 0)
(-1.0843549e-11 -1.7122732e-06 0)
(-3.1022557e-09 -1.2549619e-05 0)
(3.2818311e-09 -1.2550014e-05 0)
(7.5083292e-11 -1.713233e-06 0)
(3.0163023e-09 8.1141696e-06 0)
(-6.3992488e-10 6.1482917e-06 0)
(-8.6146832e-10 6.1490574e-06 0)
(1.9361537e-10 8.115601e-06 0)
(-3.8905381e-09 -1.7123807e-06 0)
(1.317688e-09 -1.255037e-05 0)
(-1.1800648e-09 -1.2550756e-05 0)
(4.0529448e-09 -1.7133107e-06 0)
(-2.0120722e-10 8.1146627e-06 0)
(8.9557098e-10 6.1486608e-06 0)
(6.1924832e-10 6.1493968e-06 0)
(-2.8007983e-09 8.1160577e-06 0)
(1.3805919e-10 -1.7124915e-06 0)
(-3.0240262e-09 -1.2551091e-05 0)
(3.1985036e-09 -1.2551463e-05 0)
(-7.7156879e-11 -1.7133968e-06 0)
(2.9040455e-09 8.1151486e-06 0)
(-6.4793147e-10 6.1490116e-06 0)
(-8.5013594e-10 6.1497257e-06 0)
(2.9354067e-10 8.1164882e-06 0)
(-3.7362934e-09 -1.7125915e-06 0)
(1.3826404e-09 -1.2551785e-05 0)
(-1.2504644e-09 -1.2552149e-05 0)
(3.8943592e-09 -1.7134676e-06 0)
(-3.0262233e-10 8.1156045e-06 0)
(8.839246e-10 6.1493527e-06 0)
(6.2690978e-10 6.1500386e-06 0)
(-2.6966438e-09 8.116909e-06 0)
(2.786997e-10 -1.712694e-06 0)
(-2.9507196e-09 -1.2552451e-05 0)
(3.1190008e-09 -1.2552801e-05 0)
(-2.2192031e-10 -1.7135465e-06 0)
(2.7976056e-09 8.1160536e-06 0)
(-6.5555113e-10 6.1496764e-06 0)
(-8.3944984e-10 6.1503413e-06 0)
(3.8809077e-10 8.1173055e-06 0)
(-3.5907067e-09 -1.7127867e-06 0)
(1.4436567e-09 -1.255309e-05 0)
(-1.3179059e-09 -1.2553432e-05 0)
(3.7437622e-09 -1.7136109e-06 0)
(-3.9895315e-10 8.1164741e-06 0)
(8.7292254e-10 6.149991e-06 0)
(6.3419835e-10 6.1506291e-06 0)
(-2.5981878e-09 8.1176923e-06 0)
(4.1169003e-10 -1.7128812e-06 0)
(-2.8819353e-09 -1.2553703e-05 0)
(3.0431733e-09 -1.2554032e-05 0)
(-3.5964038e-10 -1.7136832e-06 0)
(2.696636e-09 8.1168883e-06 0)
(-6.6281239e-10 6.1502889e-06 0)
(-8.2936721e-10 6.1509071e-06 0)
(4.7766671e-10 8.1180566e-06 0)
(-3.4531385e-09 -1.7129669e-06 0)
(1.5010989e-09 -1.2554291e-05 0)
(-1.3825166e-09 -1.2554613e-05 0)
(3.6006804e-09 -1.7137416e-06 0)
(-4.9052994e-10 8.1172753e-06 0)
(8.6252533e-10 6.1505783e-06 0)
(6.4114654e-10 6.1511711e-06 0)
(-2.5050085e-09 8.1184113e-06 0)
(5.3763807e-10 -1.7130538e-06 0)
(-2.8172864e-09 -1.2554854e-05 0)
(2.9708517e-09 -1.2555163e-05 0)
(-4.9077051e-10 -1.7138077e-06 0)
(2.6007802e-09 8.1176561e-06 0)
(-6.6974456e-10 6.1508518e-06 0)
(-8.1984557e-10 6.1514257e-06 0)
(5.6266718e-10 8.1187452e-06 0)
(-3.3229574e-09 -1.7131328e-06 0)
(1.5553147e-09 -1.2555392e-05 0)
(-1.4444431e-09 -1.2555695e-05 0)
(3.4646251e-09 -1.7138605e-06 0)
(-5.7769117e-10 8.1180112e-06 0)
(8.5269326e-10 6.1511172e-06 0)
(6.4778668e-10 6.1516672e-06 0)
(-2.4166892e-09 8.1190695e-06 0)
(6.5714157e-10 -1.7132122e-06 0)
(-2.756402e-09 -1.2555908e-05 0)
(2.9018504e-09 -1.2556198e-05 0)
(-6.1577685e-10 -1.7139209e-06 0)
(2.5096765e-09 8.1183604e-06 0)
(-6.7637736e-10 6.1513676e-06 0)
(-8.1084312e-10 6.1518995e-06 0)