/*--------------------------------*- C++ -*----------------------------------*\
| =========                 |                                                 |
| \\      /  F ield         | OpenFOAM: The Open Source CFD Toolbox           |
|  \\    /   O peration     | Version:  5.x                                   |
|   \\  /    A nd           | Web:      www.OpenFOAM.org                      |
|    \\/     M anipulation  |                                                 |
\*---------------------------------------------------------------------------*/
FoamFile
{
    version     2.0;
    format      ascii;
    class       volScalarField;
    location    "3";
    object      p;
}
// * * * * * * * * * * * * * * * * * * * * * * * * * * * * * * * * * * * * * //

dimensions      [0 2 -2 0 0 0 0];

internalField   nonuniform List<scalar> 
1920
(
-5523.5722
-5523.5787
-5523.5655
-5523.5511
-5523.5511
-5523.5655
-5523.5787
-5523.5722
-5523.568
-5523.5746
-5523.5676
-5523.5581
-5523.5581
-5523.5677
-5523.5746
-5523.568
-5523.5643
-5523.5715
-5523.5706
-5523.5658
-5523.5658
-5523.5706
-5523.5715
-5523.5643
-5523.5621
-5523.5711
-5523.574
-5523.5724
-5523.5724
-5523.5741
-5523.5711
-5523.5621
-5523.5629
-5523.573
-5523.5784
-5523.5786
-5523.5786
-5523.5784
-5523.573
-5523.5629
-5523.5661
-5523.577
-5523.5838
-5523.5851
-5523.5851
-5523.5838
-5523.577
-5523.5661
-5523.5717
-5523.5827
-5523.5902
-5523.5923
-5523.5923
-5523.5902
-5523.5827
-5523.5717
-5523.5794
-5523.5901
-5523.5977
-5523.6001
-5523.6001
-5523.5977
-5523.5901
-5523.5794
-5523.5889
-5523.5988
-5523.6062
-5523.6087
-5523.6087
-5523.6062
-5523.5988
-5523.589
-5523.5999
-5523.6089
-5523.6156
-5523.6181
-5523.6181
-5523.6156
-5523.6089
-5523.5999
-5523.6121
-5523.6199
-5523.6258
-5523.6282
-5523.6282
-5523.6259
-5523.6199
-5523.6121
-5523.6251
-5523.6317
-5523.6368
-5523.6389
-5523.6389
-5523.6368
-5523.6317
-5523.6251
-5523.6387
-5523.6441
-5523.6484
-5523.6502
-5523.6502
-5523.6484
-5523.6441
-5523.6387
-5523.6527
-5523.657
-5523.6604
-5523.6619
-5523.6619
-5523.6604
-5523.657
-5523.6527
-5523.6668
-5523.6701
-5523.6728
-5523.674
-5523.674
-5523.6728
-5523.6701
-5523.6668
-5523.6809
-5523.6834
-5523.6855
-5523.6865
-5523.6865
-5523.6855
-5523.6834
-5523.6809
-5523.695
-5523.6969
-5523.6984
-5523.6992
-5523.6992
-5523.6984
-5523.6969
-5523.695
-5523.709
-5523.7103
-5523.7114
-5523.712
-5523.712
-5523.7114
-5523.7103
-5523.7091
-5523.7229
-5523.7238
-5523.7246
-5523.725
-5523.725
-5523.7246
-5523.7238
-5523.7229
-5523.7367
-5523.7373
-5523.7378
-5523.7381
-5523.7381
-5523.7378
-5523.7373
-5523.7367
-5523.7504
-5523.7507
-5523.7511
-5523.7513
-5523.7513
-5523.7511
-5523.7507
-5523.7504
-5523.7639
-5523.7641
-5523.7644
-5523.7645
-5523.7645
-5523.7644
-5523.7641
-5523.7639
-5523.7774
-5523.7775
-5523.7777
-5523.7778
-5523.7778
-5523.7777
-5523.7775
-5523.7774
-5523.7908
-5523.7909
-5523.791
-5523.791
-5523.791
-5523.791
-5523.7909
-5523.7908
-5523.8042
-5523.8042
-5523.8043
-5523.8043
-5523.8043
-5523.8043
-5523.8042
-5523.8042
-5523.8175
-5523.8175
-5523.8176
-5523.8176
-5523.8176
-5523.8176
-5523.8175
-5523.8175
-5523.8308
-5523.8309
-5523.8309
-5523.8309
-5523.8309
-5523.8309
-5523.8309
-5523.8308
-5523.8441
-5523.8442
-5523.8442
-5523.8442
-5523.8442
-5523.8442
-5523.8442
-5523.8441
-5523.8574
-5523.8575
-5523.8575
-5523.8575
-5523.8575
-5523.8575
-5523.8575
-5523.8574
-5523.8707
-5523.8708
-5523.8708
-5523.8708
-5523.8708
-5523.8708
-5523.8708
-5523.8707
-5523.884
-5523.8841
-5523.8841
-5523.8841
-5523.8841
-5523.8841
-5523.8841
-5523.884
-5523.8973
-5523.8974
-5523.8974
-5523.8974
-5523.8974
-5523.8974
-5523.8974
-5523.8973
-5523.9106
-5523.9107
-5523.9107
-5523.9107
-5523.9107
-5523.9107
-5523.9107
-5523.9106
-5523.9239
-5523.924
-5523.924
-5523.924
-5523.924
-5523.924
-5523.924
-5523.9239
-5523.9372
-5523.9373
-5523.9373
-5523.9373
-5523.9373
-5523.9373
-5523.9373
-5523.9372
-5523.9506
-5523.9506
-5523.9506
-5523.9507
-5523.9507
-5523.9506
-5523.9506
-5523.9505
-5523.9639
-5523.9639
-5523.964
-5523.964
-5523.964
-5523.964
-5523.9639
-5523.9639
-5523.9772
-5523.9772
-5523.9773
-5523.9773
-5523.9773
-5523.9773
-5523.9772
-5523.9772
-5523.9905
-5523.9906
-5523.9906
-5523.9906
-5523.9906
-5523.9906
-5523.9906
-5523.9905
-5524.0038
-5524.0039
-5524.0039
-5524.0039
-5524.0039
-5524.0039
-5524.0039
-5524.0038
-5524.0172
-5524.0172
-5524.0173
-5524.0173
-5524.0173
-5524.0172
-5524.0172
-5524.0172
-5524.0305
-5524.0305
-5524.0306
-5524.0306
-5524.0306
-5524.0306
-5524.0305
-5524.0305
-5524.0438
-5524.0439
-5524.0439
-5524.0439
-5524.0439
-5524.0439
-5524.0439
-5524.0438
-5524.0572
-5524.0572
-5524.0573
-5524.0573
-5524.0573
-5524.0572
-5524.0572
-5524.0572
-5524.0705
-5524.0706
-5524.0706
-5524.0706
-5524.0706
-5524.0706
-5524.0705
-5524.0705
-5524.0839
-5524.0839
-5524.0839
-5524.0839
-5524.0839
-5524.0839
-5524.0839
-5524.0838
-5524.0972
-5524.0972
-5524.0973
-5524.0973
-5524.0973
-5524.0973
-5524.0972
-5524.0972
-5524.1105
-5524.1106
-5524.1106
-5524.1106
-5524.1106
-5524.1106
-5524.1106
-5524.1105
-5524.1239
-5524.1239
-5524.124
-5524.124
-5524.124
-5524.124
-5524.1239
-5524.1239
-5524.1372
-5524.1373
-5524.1373
-5524.1373
-5524.1373
-5524.1373
-5524.1373
-5524.1372
-5524.1506
-5524.1506
-5524.1507
-5524.1507
-5524.1507
-5524.1507
-5524.1506
-5524.1506
-5524.164
-5524.164
-5524.164
-5524.164
-5524.164
-5524.164
-5524.164
-5524.1639
-5524.1773
-5524.1773
-5524.1774
-5524.1774
-5524.1774
-5524.1774
-5524.1773
-5524.1773
-5524.1907
-5524.1907
-5524.1907
-5524.1907
-5524.1907
-5524.1907
-5524.1907
-5524.1907
-5524.204
-5524.2041
-5524.2041
-5524.2041
-5524.2041
-5524.2041
-5524.2041
-5524.204
-5524.2174
-5524.2174
-5524.2175
-5524.2175
-5524.2175
-5524.2175
-5524.2174
-5524.2174
-5524.2308
-5524.2308
-5524.2308
-5524.2308
-5524.2308
-5524.2308
-5524.2308
-5524.2307
-5524.2441
-5524.2442
-5524.2442
-5524.2442
-5524.2442
-5524.2442
-5524.2441
-5524.2441
-5524.2575
-5524.2575
-5524.2575
-5524.2576
-5524.2576
-5524.2575
-5524.2575
-5524.2575
-5524.2709
-5524.2709
-5524.2709
-5524.2709
-5524.2709
-5524.2709
-5524.2709
-5524.2709
-5524.2842
-5524.2843
-5524.2843
-5524.2843
-5524.2843
-5524.2843
-5524.2843
-5524.2842
-5524.2976
-5524.2976
-5524.2977
-5524.2977
-5524.2977
-5524.2977
-5524.2976
-5524.2976
-5524.311
-5524.311
-5524.311
-5524.311
-5524.311
-5524.311
-5524.311
-5524.311
-5524.3244
-5524.3244
-5524.3244
-5524.3244
-5524.3244
-5524.3244
-5524.3244
-5524.3244
-5524.3377
-5524.3378
-5524.3378
-5524.3378
-5524.3378
-5524.3378
-5524.3378
-5524.3377
-5524.3511
-5524.3511
-5524.3512
-5524.3512
-5524.3512
-5524.3512
-5524.3511
-5524.3511
-5524.3645
-5524.3645
-5524.3645
-5524.3646
-5524.3646
-5524.3645
-5524.3645
-5524.3645
-5524.3779
-5524.3779
-5524.3779
-5524.3779
-5524.3779
-5524.3779
-5524.3779
-5524.3779
-5524.3913
-5524.3913
-5524.3913
-5524.3913
-5524.3913
-5524.3913
-5524.3913
-5524.3913
-5524.4046
-5524.4047
-5524.4047
-5524.4047
-5524.4047
-5524.4047
-5524.4047
-5524.4046
-5524.418
-5524.4181
-5524.4181
-5524.4181
-5524.4181
-5524.4181
-5524.4181
-5524.418
-5524.4314
-5524.4314
-5524.4315
-5524.4315
-5524.4315
-5524.4315
-5524.4314
-5524.4314
-5524.4448
-5524.4448
-5524.4448
-5524.4449
-5524.4449
-5524.4448
-5524.4448
-5524.4448
-5524.4582
-5524.4582
-5524.4582
-5524.4582
-5524.4582
-5524.4582
-5524.4582
-5524.4582
-5524.4716
-5524.4716
-5524.4716
-5524.4716
-5524.4716
-5524.4716
-5524.4716
-5524.4716
-5524.485
-5524.485
-5524.485
-5524.485
-5524.485
-5524.485
-5524.485
-5524.485
-5524.4984
-5524.4984
-5524.4984
-5524.4984
-5524.4984
-5524.4984
-5524.4984
-5524.4984
-5524.5118
-5524.5118
-5524.5118
-5524.5118
-5524.5118
-5524.5118
-5524.5118
-5524.5118
-5524.5252
-5524.5252
-5524.5252
-5524.5252
-5524.5252
-5524.5252
-5524.5252
-5524.5252
-5524.5386
-5524.5386
-5524.5386
-5524.5386
-5524.5386
-5524.5386
-5524.5386
-5524.5386
-5524.552
-5524.552
-5524.552
-5524.552
-5524.552
-5524.552
-5524.552
-5524.5519
-5524.5654
-5524.5654
-5524.5654
-5524.5654
-5524.5654
-5524.5654
-5524.5654
-5524.5653
-5524.5787
-5524.5788
-5524.5788
-5524.5788
-5524.5788
-5524.5788
-5524.5788
-5524.5787
-5524.5921
-5524.5922
-5524.5922
-5524.5922
-5524.5922
-5524.5922
-5524.5922
-5524.5921
-5524.6055
-5524.6056
-5524.6056
-5524.6056
-5524.6056
-5524.6056
-5524.6056
-5524.6055
-5524.6189
-5524.619
-5524.619
-5524.619
-5524.619
-5524.619
-5524.619
-5524.6189
-5524.6323
-5524.6324
-5524.6324
-5524.6324
-5524.6324
-5524.6324
-5524.6324
-5524.6323
-5524.6458
-5524.6458
-5524.6458
-5524.6458
-5524.6458
-5524.6458
-5524.6458
-5524.6457
-5524.6591
-5524.6592
-5524.6592
-5524.6592
-5524.6592
-5524.6592
-5524.6592
-5524.6591
-5524.6726
-5524.6726
-5524.6726
-5524.6726
-5524.6726
-5524.6726
-5524.6726
-5524.6726
-5524.686
-5524.686
-5524.686
-5524.686
-5524.686
-5524.686
-5524.686
-5524.686
-5524.6994
-5524.6994
-5524.6994
-5524.6994
-5524.6994
-5524.6994
-5524.6994
-5524.6994
-5524.7128
-5524.7128
-5524.7128
-5524.7128
-5524.7128
-5524.7128
-5524.7128
-5524.7128
-5524.7262
-5524.7262
-5524.7262
-5524.7262
-5524.7262
-5524.7262
-5524.7262
-5524.7262
-5524.7396
-5524.7396
-5524.7396
-5524.7396
-5524.7396
-5524.7396
-5524.7396
-5524.7396
-5524.753
-5524.753
-5524.753
-5524.753
-5524.753
-5524.753
-5524.753
-5524.753
-5524.7664
-5524.7664
-5524.7664
-5524.7664
-5524.7664
-5524.7664
-5524.7664
-5524.7664
-5524.7798
-5524.7798
-5524.7798
-5524.7798
-5524.7798
-5524.7798
-5524.7798
-5524.7798
-5524.7932
-5524.7932
-5524.7932
-5524.7932
-5524.7932
-5524.7932
-5524.7932
-5524.7932
-5524.8066
-5524.8066
-5524.8066
-5524.8066
-5524.8066
-5524.8066
-5524.8066
-5524.8066
-5524.82
-5524.82
-5524.82
-5524.82
-5524.82
-5524.82
-5524.82
-5524.82
-5524.8334
-5524.8334
-5524.8334
-5524.8334
-5524.8334
-5524.8334
-5524.8334
-5524.8334
-5524.8468
-5524.8468
-5524.8468
-5524.8468
-5524.8468
-5524.8468
-5524.8468
-5524.8468
-5524.8602
-5524.8602
-5524.8602
-5524.8602
-5524.8602
-5524.8602
-5524.8602
-5524.8602
-5524.8736
-5524.8736
-5524.8737
-5524.8737
-5524.8737
-5524.8737
-5524.8736
-5524.8736
-5524.887
-5524.8871
-5524.8871
-5524.8871
-5524.8871
-5524.8871
-5524.887
-5524.887
-5524.9005
-5524.9005
-5524.9005
-5524.9005
-5524.9005
-5524.9005
-5524.9005
-5524.9005
-5524.9139
-5524.9139
-5524.9139
-5524.9139
-5524.9139
-5524.9139
-5524.9139
-5524.9139
-5524.9273
-5524.9273
-5524.9273
-5524.9273
-5524.9273
-5524.9273
-5524.9273
-5524.9273
-5524.9407
-5524.9407
-5524.9407
-5524.9407
-5524.9407
-5524.9407
-5524.9407
-5524.9407
-5524.9541
-5524.9541
-5524.9541
-5524.9541
-5524.9541
-5524.9541
-5524.9541
-5524.9541
-5524.9675
-5524.9675
-5524.9675
-5524.9675
-5524.9675
-5524.9675
-5524.9675
-5524.9675
-5524.9809
-5524.9809
-5524.9809
-5524.9809
-5524.9809
-5524.9809
-5524.9809
-5524.9809
-5524.9943
-5524.9943
-5524.9943
-5524.9943
-5524.9943
-5524.9943
-5524.9943
-5524.9943
-5525.0077
-5525.0077
-5525.0077
-5525.0077
-5525.0077
-5525.0077
-5525.0077
-5525.0077
-5525.0211
-5525.0211
-5525.0211
-5525.0211
-5525.0211
-5525.0211
-5525.0211
-5525.0211
-5525.0345
-5525.0346
-5525.0346
-5525.0346
-5525.0346
-5525.0346
-5525.0346
-5525.0345
-5525.048
-5525.048
-5525.048
-5525.048
-5525.048
-5525.048
-5525.048
-5525.048
-5525.0614
-5525.0614
-5525.0614
-5525.0614
-5525.0614
-5525.0614
-5525.0614
-5525.0614
-5525.0748
-5525.0748
-5525.0748
-5525.0748
-5525.0748
-5525.0748
-5525.0748
-5525.0748
-5525.0882
-5525.0882
-5525.0882
-5525.0882
-5525.0882
-5525.0882
-5525.0882
-5525.0882
-5525.1016
-5525.1016
-5525.1016
-5525.1016
-5525.1016
-5525.1016
-5525.1016
-5525.1016
-5525.115
-5525.115
-5525.115
-5525.115
-5525.115
-5525.115
-5525.115
-5525.115
-5525.1284
-5525.1284
-5525.1284
-5525.1284
-5525.1284
-5525.1284
-5525.1284
-5525.1284
-5525.1418
-5525.1418
-5525.1418
-5525.1418
-5525.1418
-5525.1418
-5525.1418
-5525.1418
-5525.1552
-5525.1552
-5525.1552
-5525.1552
-5525.1552
-5525.1552
-5525.1552
-5525.1552
-5525.1686
-5525.1686
-5525.1686
-5525.1686
-5525.1686
-5525.1686
-5525.1686
-5525.1686
-5525.182
-5525.182
-5525.1821
-5525.1821
-5525.1821
-5525.1821
-5525.182
-5525.182
-5525.1955
-5525.1955
-5525.1955
-5525.1955
-5525.1955
-5525.1955
-5525.1955
-5525.1955
-5525.2089
-5525.2089
-5525.2089
-5525.2089
-5525.2089
-5525.2089
-5525.2089
-5525.2089
-5525.2223
-5525.2223
-5525.2223
-5525.2223
-5525.2223
-5525.2223
-5525.2223
-5525.2223
-5525.2357
-5525.2357
-5525.2357
-5525.2357
-5525.2357
-5525.2357
-5525.2357
-5525.2357
-5525.2491
-5525.2491
-5525.2491
-5525.2491
-5525.2491
-5525.2491
-5525.2491
-5525.2491
-5525.2625
-5525.2625
-5525.2625
-5525.2625
-5525.2625
-5525.2625
-5525.2625
-5525.2625
-5525.2759
-5525.2759
-5525.2759
-5525.2759
-5525.2759
-5525.2759
-5525.2759
-5525.2759
-5525.2893
-5525.2893
-5525.2893
-5525.2893
-5525.2893
-5525.2893
-5525.2893
-5525.2893
-5525.3027
-5525.3027
-5525.3027
-5525.3027
-5525.3027
-5525.3027
-5525.3027
-5525.3027
-5525.3161
-5525.3161
-5525.3161
-5525.3161
-5525.3161
-5525.3161
-5525.3161
-5525.3161
-5525.3295
-5525.3295
-5525.3295
-5525.3295
-5525.3295
-5525.3295
-5525.3295
-5525.3295
-5525.3429
-5525.3429
-5525.3429
-5525.3429
-5525.3429
-5525.3429
-5525.3429
-5525.3429
-5525.3564
-5525.3564
-5525.3564
-5525.3564
-5525.3564
-5525.3564
-5525.3564
-5525.3564
-5525.3698
-5525.3698
-5525.3698
-5525.3698
-5525.3698
-5525.3698
-5525.3698
-5525.3698
-5525.3832
-5525.3832
-5525.3832
-5525.3832
-5525.3832
-5525.3832
-5525.3832
-5525.3832
-5525.3966
-5525.3966
-5525.3966
-5525.3966
-5525.3966
-5525.3966
-5525.3966
-5525.3966
-5525.41
-5525.41
-5525.41
-5525.41
-5525.41
-5525.41
-5525.41
-5525.41
-5525.4234
-5525.4234
-5525.4234
-5525.4234
-5525.4234
-5525.4234
-5525.4234
-5525.4234
-5525.4368
-5525.4368
-5525.4368
-5525.4368
-5525.4368
-5525.4368
-5525.4368
-5525.4368
-5525.4502
-5525.4502
-5525.4502
-5525.4502
-5525.4502
-5525.4502
-5525.4502
-5525.4502
-5525.4636
-5525.4636
-5525.4636
-5525.4636
-5525.4636
-5525.4636
-5525.4636
-5525.4636
-5525.477
-5525.477
-5525.477
-5525.477
-5525.477
-5525.477
-5525.477
-5525.477
-5525.4904
-5525.4904
-5525.4904
-5525.4904
-5525.4904
-5525.4904
-5525.4904
-5525.4904
-5525.5038
-5525.5038
-5525.5038
-5525.5038
-5525.5038
-5525.5038
-5525.5038
-5525.5038
-5525.5172
-5525.5172
-5525.5172
-5525.5172
-5525.5172
-5525.5172
-5525.5172
-5525.5172
-5525.5306
-5525.5306
-5525.5306
-5525.5306
-5525.5306
-5525.5306
-5525.5306
-5525.5306
-5525.544
-5525.544
-5525.544
-5525.544
-5525.544
-5525.544
-5525.544
-5525.544
-5525.5574
-5525.5574
-5525.5574
-5525.5574
-5525.5574
-5525.5574
-5525.5574
-5525.5574
-5525.5708
-5525.5708
-5525.5708
-5525.5708
-5525.5708
-5525.5708
-5525.5708
-5525.5708
-5525.5842
-5525.5842
-5525.5842
-5525.5842
-5525.5842
-5525.5842
-5525.5842
-5525.5842
-5525.5976
-5525.5976
-5525.5976
-5525.5976
-5525.5976
-5525.5976
-5525.5976
-5525.5976
-5525.611
-5525.611
-5525.611
-5525.611
-5525.611
-5525.611
-5525.611
-5525.611
-5525.6244
-5525.6244
-5525.6244
-5525.6244
-5525.6244
-5525.6244
-5525.6244
-5525.6244
-5525.6378
-5525.6378
-5525.6378
-5525.6378
-5525.6378
-5525.6378
-5525.6378
-5525.6378
-5525.6512
-5525.6512
-5525.6512
-5525.6512
-5525.6512
-5525.6512
-5525.6512
-5525.6512
-5525.6646
-5525.6646
-5525.6646
-5525.6646
-5525.6646
-5525.6646
-5525.6646
-5525.6646
-5525.678
-5525.678
-5525.678
-5525.678
-5525.678
-5525.678
-5525.678
-5525.678
-5525.6914
-5525.6914
-5525.6914
-5525.6914
-5525.6914
-5525.6914
-5525.6914
-5525.6914
-5525.7048
-5525.7048
-5525.7048
-5525.7048
-5525.7048
-5525.7048
-5525.7048
-5525.7048
-5525.7182
-5525.7182
-5525.7182
-5525.7182
-5525.7182
-5525.7182
-5525.7182
-5525.7182
-5525.7316
-5525.7316
-5525.7316
-5525.7316
-5525.7316
-5525.7316
-5525.7316
-5525.7316
-5525.745
-5525.745
-5525.745
-5525.745
-5525.745
-5525.745
-5525.745
-5525.745
-5525.7584
-5525.7584
-5525.7584
-5525.7584
-5525.7584
-5525.7584
-5525.7584
-5525.7584
-5525.7718
-5525.7718
-5525.7718
-5525.7718
-5525.7718
-5525.7718
-5525.7718
-5525.7718
-5525.7852
-5525.7852
-5525.7852
-5525.7852
-5525.7852
-5525.7852
-5525.7852
-5525.7852
-5525.7986
-5525.7986
-5525.7986
-5525.7986
-5525.7986
-5525.7986
-5525.7986
-5525.7986
-5525.812
-5525.812
-5525.812
-5525.812
-5525.812
-5525.812
-5525.812
-5525.812
-5525.8254
-5525.8254
-5525.8254
-5525.8254
-5525.8254
-5525.8254
-5525.8254
-5525.8254
-5525.8388
-5525.8388
-5525.8388
-5525.8388
-5525.8388
-5525.8387
-5525.8388
-5525.8388
-5525.8522
-5525.8521
-5525.8521
-5525.8521
-5525.8521
-5525.8521
-5525.8521
-5525.8522
-5525.8655
-5525.8655
-5525.8655
-5525.8655
-5525.8655
-5525.8655
-5525.8655
-5525.8655
-5525.8789
-5525.8789
-5525.8789
-5525.8789
-5525.8789
-5525.8789
-5525.8789
-5525.8789
-5525.8923
-5525.8923
-5525.8923
-5525.8923
-5525.8923
-5525.8923
-5525.8923
-5525.8923
-5525.9057
-5525.9057
-5525.9057
-5525.9057
-5525.9057
-5525.9057
-5525.9057
-5525.9057
-5525.9191
-5525.9191
-5525.9191
-5525.9191
-5525.9191
-5525.9191
-5525.9191
-5525.9191
-5525.9325
-5525.9325
-5525.9325
-5525.9325
-5525.9325
-5525.9325
-5525.9325
-5525.9325
-5525.9459
-5525.9459
-5525.9459
-5525.9459
-5525.9459
-5525.9459
-5525.9459
-5525.9459
-5525.9593
-5525.9592
-5525.9592
-5525.9592
-5525.9592
-5525.9592
-5525.9592
-5525.9593
-5525.9726
-5525.9726
-5525.9726
-5525.9726
-5525.9726
-5525.9726
-5525.9726
-5525.9726
-5525.986
-5525.986
-5525.986
-5525.986
-5525.986
-5525.986
-5525.986
-5525.986
-5525.9994
-5525.9994
-5525.9994
-5525.9994
-5525.9994
-5525.9994
-5525.9994
-5525.9994
-5526.0128
-5526.0128
-5526.0128
-5526.0128
-5526.0128
-5526.0128
-5526.0128
-5526.0128
-5526.0262
-5526.0262
-5526.0262
-5526.0262
-5526.0262
-5526.0262
-5526.0262
-5526.0262
-5526.0396
-5526.0395
-5526.0395
-5526.0395
-5526.0395
-5526.0395
-5526.0395
-5526.0396
-5526.0529
-5526.0529
-5526.0529
-5526.0529
-5526.0529
-5526.0529
-5526.0529
-5526.0529
-5526.0663
-5526.0663
-5526.0663
-5526.0663
-5526.0663
-5526.0663
-5526.0663
-5526.0663
-5526.0797
-5526.0797
-5526.0797
-5526.0797
-5526.0797
-5526.0797
-5526.0797
-5526.0797
-5526.0931
-5526.0931
-5526.0931
-5526.0931
-5526.0931
-5526.0931
-5526.0931
-5526.0931
-5526.1065
-5526.1065
-5526.1064
-5526.1064
-5526.1064
-5526.1064
-5526.1065
-5526.1065
-5526.1198
-5526.1198
-5526.1198
-5526.1198
-5526.1198
-5526.1198
-5526.1198
-5526.1198
-5526.1332
-5526.1332
-5526.1332
-5526.1332
-5526.1332
-5526.1332
-5526.1332
-5526.1332
-5526.1466
-5526.1466
-5526.1466
-5526.1466
-5526.1466
-5526.1466
-5526.1466
-5526.1466
-5526.16
-5526.16
-5526.1599
-5526.1599
-5526.1599
-5526.1599
-5526.16
-5526.16
-5526.1733
-5526.1733
-5526.1733
-5526.1733
-5526.1733
-5526.1733
-5526.1733
-5526.1733
-5526.1867
-5526.1867
-5526.1867
-5526.1867
-5526.1867
-5526.1867
-5526.1867
-5526.1867
-5526.2001
-5526.2001
-5526.2001
-5526.2001
-5526.2001
-5526.2001
-5526.2001
-5526.2001
-5526.2134
-5526.2134
-5526.2134
-5526.2134
-5526.2134
-5526.2134
-5526.2134
-5526.2135
-5526.2268
-5526.2268
-5526.2268
-5526.2268
-5526.2268
-5526.2268
-5526.2268
-5526.2268
-5526.2402
-5526.2402
-5526.2402
-5526.2402
-5526.2402
-5526.2402
-5526.2402
-5526.2402
-5526.2536
-5526.2535
-5526.2535
-5526.2535
-5526.2535
-5526.2535
-5526.2535
-5526.2536
-5526.2669
-5526.2669
-5526.2669
-5526.2669
-5526.2669
-5526.2669
-5526.2669
-5526.2669
-5526.2803
-5526.2803
-5526.2802
-5526.2802
-5526.2802
-5526.2803
-5526.2803
-5526.2803
-5526.2936
-5526.2936
-5526.2936
-5526.2936
-5526.2936
-5526.2936
-5526.2936
-5526.2936
-5526.307
-5526.307
-5526.307
-5526.307
-5526.307
-5526.307
-5526.307
-5526.307
-5526.3204
-5526.3203
-5526.3203
-5526.3203
-5526.3203
-5526.3203
-5526.3203
-5526.3204
-5526.3337
-5526.3337
-5526.3337
-5526.3337
-5526.3337
-5526.3337
-5526.3337
-5526.3337
-5526.3471
-5526.347
-5526.347
-5526.347
-5526.347
-5526.347
-5526.3471
-5526.3471
-5526.3604
-5526.3604
-5526.3604
-5526.3604
-5526.3604
-5526.3604
-5526.3604
-5526.3604
-5526.3738
-5526.3738
-5526.3737
-5526.3737
-5526.3737
-5526.3737
-5526.3738
-5526.3738
-5526.3871
-5526.3871
-5526.3871
-5526.387
-5526.387
-5526.3871
-5526.3871
-5526.3871
-5526.4005
-5526.4005
-5526.4004
-5526.4004
-5526.4004
-5526.4004
-5526.4005
-5526.4005
-5526.4139
-5526.4138
-5526.4138
-5526.4137
-5526.4137
-5526.4138
-5526.4138
-5526.4139
-5526.4272
-5526.4272
-5526.4271
-5526.427
-5526.427
-5526.4271
-5526.4272
-5526.4272
-5526.4406
-5526.4405
-5526.4404
-5526.4403
-5526.4403
-5526.4404
-5526.4405
-5526.4406
-5526.454
-5526.4539
-5526.4537
-5526.4536
-5526.4536
-5526.4537
-5526.4539
-5526.4541
-5526.4675
-5526.4672
-5526.467
-5526.4669
-5526.4669
-5526.467
-5526.4673
-5526.4675
-5526.481
-5526.4806
-5526.4803
-5526.4802
-5526.4802
-5526.4803
-5526.4806
-5526.481
-5526.4945
-5526.494
-5526.4936
-5526.4934
-5526.4934
-5526.4936
-5526.494
-5526.4945
-5526.508
-5526.5074
-5526.5068
-5526.5065
-5526.5065
-5526.5068
-5526.5074
-5526.508
-5526.5216
-5526.5207
-5526.52
-5526.5196
-5526.5196
-5526.52
-5526.5207
-5526.5216
-5526.5353
-5526.534
-5526.5331
-5526.5326
-5526.5326
-5526.533
-5526.534
-5526.5352
-5526.5489
-5526.5473
-5526.546
-5526.5455
-5526.5455
-5526.546
-5526.5472
-5526.5489
-5526.5625
-5526.5605
-5526.5589
-5526.5582
-5526.5582
-5526.5588
-5526.5604
-5526.5624
-5526.576
-5526.5735
-5526.5716
-5526.5708
-5526.5708
-5526.5715
-5526.5734
-5526.5759
-5526.5894
-5526.5862
-5526.584
-5526.5832
-5526.5831
-5526.5839
-5526.5861
-5526.5892
-5526.6024
-5526.5987
-5526.5962
-5526.5953
-5526.5953
-5526.5961
-5526.5986
-5526.6022
-5526.6149
-5526.6107
-5526.608
-5526.6072
-5526.6071
-5526.6079
-5526.6106
-5526.6147
-5526.6268
-5526.6222
-5526.6194
-5526.6188
-5526.6187
-5526.6193
-5526.6221
-5526.6266
-5526.6378
-5526.633
-5526.6305
-5526.6302
-5526.6302
-5526.6304
-5526.6328
-5526.6376
-5526.6479
-5526.643
-5526.641
-5526.6415
-5526.6415
-5526.6409
-5526.6428
-5526.6476
-5526.6571
-5526.6525
-5526.6509
-5526.6517
-5526.6517
-5526.6507
-5526.6523
-5526.6568
-5526.6649
-5526.6626
-5526.6605
-5526.6596
-5526.6596
-5526.6604
-5526.6625
-5526.6648
)
;

boundaryField
{
    left
    {
        type            zeroGradient;
    }
    right
    {
        type            WKBC;
        index           0;
        value           uniform -5526.6661;
    }
    walls
    {
        type            zeroGradient;
    }
    frontAndBack
    {
        type            empty;
    }
}


// ************************************************************************* //
