/*--------------------------------*- C++ -*----------------------------------*\
| =========                 |                                                 |
| \\      /  F ield         | OpenFOAM: The Open Source CFD Toolbox           |
|  \\    /   O peration     | Version:  5.x                                   |
|   \\  /    A nd           | Web:      www.OpenFOAM.org                      |
|    \\/     M anipulation  |                                                 |
\*---------------------------------------------------------------------------*/
FoamFile
{
    version     2.0;
    format      ascii;
    class       surfaceScalarField;
    location    "3";
    object      phi;
}
// * * * * * * * * * * * * * * * * * * * * * * * * * * * * * * * * * * * * * //

dimensions      [0 3 -1 0 0 0 0];

internalField   nonuniform List<scalar> 
3592
(
-6.8213365e-10
6.8213365e-10
-1.7386194e-09
1.0564913e-09
-1.5731033e-09
-1.6551066e-10
1.0284899e-12
-1.5741268e-09
1.5741368e-09
-1.5731034e-09
1.7396507e-09
-1.655088e-10
6.8213725e-10
1.0575187e-09
6.8214259e-10
-1.4248535e-09
2.1069933e-09
-3.8037255e-09
3.4353749e-09
-3.4770659e-09
-4.9215885e-10
1.6955002e-12
-5.0528773e-09
3.4813643e-09
-5.0527611e-09
3.8052808e-09
-4.8941396e-10
1.4257139e-09
3.4370971e-09
2.1078628e-09
-2.241962e-09
4.3489624e-09
-5.3935999e-09
6.5870244e-09
-4.7975317e-09
-1.0882159e-09
3.2526425e-12
-9.8536507e-09
4.8019308e-09
-9.8514282e-09
5.3971079e-09
-1.0845796e-09
2.2427762e-09
6.59144e-09
4.3506445e-09
-2.839544e-09
7.188513e-09
-6.4494391e-09
1.0196931e-08
-5.6510728e-09
-1.8865713e-09
2.9775524e-12
-1.5507691e-08
5.6572449e-09
-1.5505685e-08
6.452597e-09
-1.8799206e-09
2.8408126e-09
1.0203235e-08
7.1914627e-09
-3.1241795e-09
1.0312699e-08
-7.0275549e-09
1.4100317e-08
-6.0842513e-09
-2.8298647e-09
3.3742141e-12
-2.1595306e-08
6.0893322e-09
-2.1591633e-08
7.0312672e-09
-2.8218452e-09
3.1253231e-09
1.410919e-08
1.0316791e-08
-3.2306827e-09
1.3543388e-08
-7.1385235e-09
1.8008169e-08
-6.1810911e-09
-3.7872863e-09
2.4950437e-12
-2.7778882e-08
6.1859397e-09
-2.7775067e-08
7.1412999e-09
-3.7771945e-09
3.2317035e-09
1.8018797e-08
1.35485e-08
-3.1016639e-09
1.6645057e-08
-6.917962e-09
2.1824477e-08
-5.9632963e-09
-4.7419419e-09
1.8931481e-12
-3.3744062e-08
5.9664133e-09
-3.3739577e-08
6.9200534e-09
-4.7308244e-09
3.1024321e-09
2.1836428e-08
1.6650937e-08
-2.8856833e-09
1.9530747e-08
-6.3884521e-09
2.5327257e-08
-5.5305926e-09
-5.5997906e-09
8.9035935e-13
-3.9275534e-08
5.5320752e-09
-3.9270751e-08
6.3895225e-09
-5.5882607e-09
2.8859986e-09
2.5339963e-08
1.9536942e-08
-2.536281e-09
2.2067034e-08
-5.7031648e-09
2.8494151e-08
-4.932824e-09
-6.3701215e-09
-2.1750905e-13
-4.4208131e-08
4.9327907e-09
-4.420375e-08
5.7029222e-09
-6.3583821e-09
2.5363489e-09
2.8506546e-08
2.2073296e-08
-2.1795122e-09
2.4246552e-08
-4.8916988e-09
3.1206349e-08
-4.2615135e-09
-7.0002957e-09
-9.2245823e-13
-4.8468712e-08
4.2594158e-09
-4.8464078e-08
4.890804e-09
-6.9897593e-09
2.1790876e-09
3.1218273e-08
2.4252389e-08
-1.7787302e-09
2.6025288e-08
-4.0693759e-09
3.3497005e-08
-3.5517222e-09
-7.5179398e-09
-2.0322492e-12
-5.2018392e-08
3.5488382e-09
-5.2014939e-08
4.067158e-09
-7.5080692e-09
1.7781698e-09
3.3507271e-08
2.6030563e-08
-1.4180599e-09
2.7443355e-08
-3.25768e-09
3.5336637e-08
-2.8693049e-09
-7.9063037e-09
-2.2990138e-12
-5.4885387e-08
2.8646386e-09
-5.4881866e-08
3.2553113e-09
-7.8987308e-09
1.4171325e-09
3.534546e-08
2.7447702e-08
-1.0733645e-09
2.8516725e-08
-2.5243642e-09
3.6787647e-08
-2.2353279e-09
-8.1953304e-09
-3.1537007e-12
-5.7117553e-08
2.2305732e-09
-5.7115583e-08
2.5209702e-09
-8.1891182e-09
1.0724209e-09
3.6794019e-08
2.8520127e-08
-7.8637673e-10
2.9303108e-08
-1.8774476e-09
3.7878729e-08
-1.6828494e-09
-8.3899174e-09
-3.1167771e-12
-5.8797274e-08
1.6768057e-09
-5.8795495e-08
1.8742301e-09
-8.3865315e-09
7.8520593e-10
3.7883054e-08
2.9305339e-08
-5.4388241e-10
2.9846996e-08
-1.3413707e-09
3.8676227e-08
-1.2164962e-09
-8.5147826e-09
-3.7092105e-12
-6.0010052e-08
1.2106939e-09
-6.0009889e-08
1.3374318e-09
-8.5132601e-09
5.4275145e-10
3.8677744e-08
2.9848095e-08
-3.5515259e-10
3.0202155e-08
-9.113849e-10
3.9232471e-08
-8.4232078e-10
-8.5838355e-09
-3.5861147e-12
-6.0848776e-08
8.3562405e-10
-6.0849089e-08
9.0768895e-10
-8.5853138e-09
3.5387453e-10
3.9231569e-08
3.0201975e-08
-2.139001e-10
3.0416061e-08
-5.8278894e-10
3.960137e-08
-5.5320571e-10
-8.6134096e-09
-3.9966439e-12
-6.1397977e-08
5.4674657e-10
-6.1399823e-08
5.7857903e-10
-8.6171371e-09
2.1265854e-10
3.9597498e-08
3.0414638e-08
-1.1131168e-10
3.0527379e-08
-3.4402937e-10
3.9834099e-08
-3.3977108e-10
-8.6176566e-09
-3.895268e-12
-6.1733842e-08
3.3270385e-10
-6.1736411e-08
3.3998975e-10
-8.6244119e-09
1.0995702e-10
3.9827542e-08
3.0524601e-08
-4.5750472e-11
3.0573135e-08
-1.7746315e-10
3.9965821e-08
-1.9030594e-10
-8.6048049e-09
-4.1516871e-12
-6.1919987e-08
1.8340986e-10
-6.1923964e-08
1.7308867e-10
-8.6140818e-09
4.4422966e-11
3.9956216e-08
3.0569028e-08
-1.9226754e-12
3.0575064e-08
-7.1244957e-11
4.0035155e-08
-9.0576768e-11
-8.5854618e-09
-4.0556026e-12
-6.2006498e-08
8.3375412e-11
-6.2011384e-08
6.7009171e-11
-8.5977044e-09
5.1853599e-13
4.0022718e-08
3.0569552e-08
1.8304664e-11
3.0556764e-08
-6.3165988e-12
4.0059785e-08
-2.9924994e-11
-8.5618447e-09
-4.1089172e-12
-6.2032306e-08
2.2967297e-11
-6.2038452e-08
1.969779e-12
-8.5766981e-09
-1.9654887e-11
4.0044351e-08
3.0549902e-08
3.0140462e-11
3.0526631e-08
2.5390845e-11
4.0064547e-08
4.2912194e-12
-8.5407338e-09
-3.9128578e-12
-6.2024091e-08
-1.114782e-11
-6.2031207e-08
-2.9502942e-11
-8.5583318e-09
-3.1501765e-11
4.0046361e-08
3.0518406e-08
2.8983863e-11
3.0497652e-08
3.8995645e-11
4.0054544e-08
1.9012203e-11
-8.5207419e-09
-3.7126237e-12
-6.2001358e-08
-2.5375447e-11
-6.2009536e-08
-4.2936708e-11
-8.540762e-09
-3.0223151e-11
4.0033656e-08
3.0488187e-08
2.7651635e-11
3.0470007e-08
3.776226e-11
4.0044445e-08
2.3086571e-11
-8.5060549e-09
-3.3368064e-12
-6.1974924e-08
-2.8888532e-11
-6.1983973e-08
-4.1279795e-11
-8.5283596e-09
-2.8817278e-11
4.0021204e-08
3.0459375e-08
1.9604565e-11
3.0450407e-08
3.2045406e-11
4.0032013e-08
1.9580119e-11
-8.4935813e-09
-2.8895508e-12
-6.1952446e-08
-2.4569297e-11
-6.1962285e-08
-3.5112411e-11
-8.5178082e-09
-2.0566241e-11
4.0006666e-08
3.0438813e-08
1.533188e-11
3.0435082e-08
2.1222298e-11
4.0026134e-08
1.3899702e-11
-8.4862474e-09
-2.3478361e-12
-6.1936188e-08
-1.7946441e-11
-6.1946676e-08
-2.3681835e-11
-8.5120616e-09
-1.6146728e-11
3.9999141e-08
3.0422672e-08
7.1408503e-12
3.0427946e-08
1.2151998e-11
4.0021132e-08
6.3330447e-12
-8.4804204e-09
-1.7268667e-12
-6.192812e-08
-9.3339207e-12
-6.1939061e-08
-1.3970487e-11
-8.5074169e-09
-7.6918068e-12
3.9992871e-08
3.0414984e-08
4.039087e-12
3.0423913e-08
1.8322973e-12
4.002335e-08
7.7791487e-14
-8.4786545e-09
-1.0994316e-12
-6.1926932e-08
-1.9340249e-12
-6.1938216e-08
-2.9483744e-12
-8.5063913e-09
-4.4076996e-12
3.9994341e-08
3.0410582e-08
-2.207947e-12
3.0426126e-08
-4.795817e-12
4.0025946e-08
-6.1319862e-12
-8.4773105e-09
-4.2446895e-13
-6.1932632e-08
5.3752315e-12
-6.1944008e-08
4.3778774e-12
-8.5053861e-09
2.1209675e-12
3.9996606e-08
3.0412707e-08
-3.2891301e-12
3.0429422e-08
-1.1857785e-11
4.0034526e-08
-1.0173272e-11
-8.4789836e-09
1.7831582e-13
-6.1942973e-08
1.0548392e-11
-6.1954367e-08
1.2114534e-11
-8.506941e-09
3.3741275e-12
4.0005357e-08
3.0416087e-08
-7.6089759e-12
3.0437035e-08
-1.5192433e-11
4.0042118e-08
-1.3977726e-11
-8.4801907e-09
7.9124756e-13
-6.1957734e-08
1.5318747e-11
-6.1968887e-08
1.6075528e-11
-8.5076901e-09
7.950733e-12
4.0013489e-08
3.0424042e-08
-7.0787113e-12
3.0444121e-08
-1.9296559e-11
4.0054348e-08
-1.5791669e-11
-8.4836842e-09
1.2744907e-12
-6.1974789e-08
1.8074912e-11
-6.1985676e-08
2.0722625e-11
-8.5103265e-09
7.5451505e-12
4.0026677e-08
3.0431592e-08
-1.0099249e-11
3.0454224e-08
-2.0190228e-11
4.0064447e-08
-1.7732031e-11
-8.4861349e-09
1.7443553e-12
-6.1994259e-08
2.0715259e-11
-6.200464e-08
2.2082799e-11
-8.5116866e-09
1.0768595e-11
4.0037999e-08
3.0442365e-08
-8.5958928e-12
3.0462827e-08
-2.2398498e-11
4.0078261e-08
-1.8085237e-11
-8.4904368e-09
2.0540605e-12
-6.2014387e-08
2.1720753e-11
-6.2024296e-08
2.4644419e-11
-8.514599e-09
9.3232219e-12
4.0053331e-08
3.0451694e-08
-1.0910492e-11
3.0473742e-08
-2.1895044e-11
4.0089253e-08
-1.8956147e-11
-8.4933685e-09
2.346859e-12
-6.2035683e-08
2.2971942e-11
-6.2044914e-08
2.4412272e-11
-8.516032e-09
1.1776014e-11
4.0065975e-08
3.0463473e-08
-8.9273038e-12
3.0482676e-08
-2.3124828e-11
4.0103462e-08
-1.8566039e-11
-8.4979158e-09
2.4730772e-12
-6.2056711e-08
2.2923757e-11
-6.2065354e-08
2.5797021e-11
-8.5188941e-09
9.7822709e-12
4.0082e-08
3.0473261e-08
-1.0924461e-11
3.0493604e-08
-2.1972855e-11
4.0114518e-08
-1.895742e-11
-8.5009243e-09
2.5953833e-12
-6.2078257e-08
2.3391337e-11
-6.2086143e-08
2.4730936e-11
-8.5202266e-09
1.1857357e-11
4.0094881e-08
3.0485122e-08
-8.7538711e-12
3.0502365e-08
-2.2796632e-11
4.0128573e-08
-1.8281365e-11
-8.5054281e-09
2.5613075e-12
-6.2099089e-08
2.2785524e-11
-6.2106356e-08
2.553872e-11
-8.5229685e-09
9.6182532e-12
4.0110812e-08
3.0494746e-08
-1.0639115e-11
3.0513008e-08
-2.1416546e-11
4.0139358e-08
-1.8523845e-11
-8.508314e-09
2.5459303e-12
-6.2120152e-08
2.2860178e-11
-6.2126664e-08
2.4097028e-11
-8.5241985e-09
1.1534821e-11
4.0123381e-08
3.0506284e-08
-8.4242577e-12
3.0521439e-08
-2.2123612e-11
4.0153068e-08
-1.7790232e-11
-8.512636e-09
2.392696e-12
-6.2140324e-08
2.1995529e-11
-6.2146256e-08
2.4663313e-11
-8.526855e-09
9.2100793e-12
4.0138845e-08
3.05155e-08
-1.0286633e-11
3.0531729e-08
-2.0707899e-11
4.0163497e-08
-1.8028154e-11
-8.5153091e-09
2.2834237e-12
-6.216063e-08
2.1899802e-11
-6.2165866e-08
2.3087453e-11
-8.528036e-09
1.107404e-11
4.0150865e-08
3.0526577e-08
-8.0840482e-12
3.053982e-08
-2.1414572e-11
4.0176839e-08
-1.732196e-11
-8.5193903e-09
2.0563936e-12
-6.2179997e-08
2.093926e-11
-6.2184738e-08
2.3578376e-11
-8.5306639e-09
8.7375229e-12
4.0165717e-08
3.0535321e-08
-9.951888e-12
3.0549776e-08
-2.0029488e-11
4.0186924e-08
-1.7595888e-11
-8.5218176e-09
1.8963692e-12
-6.2199483e-08
2.0789965e-11
-6.2203625e-08
2.1981847e-11
-8.5318493e-09
1.0592987e-11
4.0177112e-08
3.0545917e-08
-7.776228e-12
3.0557559e-08
-2.0765202e-11
4.0199924e-08
-1.6930153e-11
-8.5256412e-09
1.6360809e-12
-6.2218039e-08
1.9816155e-11
-6.2221794e-08
2.2470528e-11
-8.5344925e-09
8.2741357e-12
4.0191319e-08
3.0554196e-08
-9.651631e-12
3.0567214e-08
-1.9419191e-11
4.0209699e-08
-1.723452e-11
-8.5278197e-09
1.4610454e-12
-6.2236728e-08
1.9670485e-11
-6.2239998e-08
2.0900179e-11
-8.5357159e-09
1.0135616e-11
4.020209e-08
3.0564335e-08
-7.5010351e-12
3.0574722e-08
-2.0178078e-11
4.0222387e-08
-1.6594598e-11
-8.5313918e-09
1.1987387e-12
-6.2254511e-08
1.8722186e-11
-6.225751e-08
2.1413733e-11
-8.5383963e-09
7.8434396e-12
4.0215671e-08
3.0572184e-08
-9.3775917e-12
3.0584103e-08
-1.8859276e-11
4.0231875e-08
-1.6909856e-11
-8.5333353e-09
1.0344147e-12
-6.2272449e-08
1.8605537e-11
-6.2275076e-08
1.9884765e-11
-8.5396694e-09
9.7129206e-12
4.0225849e-08
3.05819e-08
-7.2458757e-12
3.0591355e-08
-1.9626046e-11
4.0244267e-08
-1.6275922e-11
-8.536674e-09
7.9104073e-13
-6.2289505e-08
1.7698501e-11
-6.2291972e-08
2.0429449e-11
-8.5423892e-09
7.4480959e-12
4.0238841e-08
3.0589354e-08
-9.1163655e-12
3.0600475e-08
-1.8319627e-11
4.0253477e-08
-1.6583305e-11
-8.5384046e-09
6.5331234e-13
-6.2306736e-08
1.7619738e-11
-6.2308933e-08
1.8943262e-11
-8.5437069e-09
9.3230612e-12
4.0248467e-08
3.059868e-08
-6.9978789e-12
3.060748e-08
-1.908037e-11
4.026557e-08
-1.5939545e-11
-8.5415341e-09
4.4063578e-13
-6.2323106e-08
1.6757839e-11
-6.232524e-08
1.951674e-11
-8.5464547e-09
7.0834227e-12
4.0260911e-08
3.0605769e-08
-8.8568788e-12
3.061634e-08
-1.7774947e-11
4.0274495e-08
-1.6226123e-11
-8.5430773e-09
3.372118e-13
-6.2339664e-08
1.671738e-11
-6.2341614e-08
1.8069363e-11
-8.547801e-09
8.9602608e-12
4.0270026e-08
3.0614732e-08
-6.7478676e-12
3.0623094e-08
-1.8520366e-11
4.0286279e-08
-1.5563066e-11
-8.5460233e-09
1.5984767e-13
-6.2355376e-08
1.5898519e-11
-6.2357342e-08
1.8666318e-11
-8.5505577e-09
6.7430482e-12
4.028196e-08
3.0621481e-08
-8.5921469e-12
3.063169e-08
-1.7209283e-11
4.0294902e-08
-1.5822216e-11
-8.5474051e-09
9.243247e-14
-6.2371285e-08
1.5892658e-11
-6.2373137e-08
1.7252184e-11
-8.5519118e-09
8.6183436e-12
4.0290599e-08
3.0630102e-08
-6.4907045e-12
3.0638187e-08
-1.7934698e-11
4.0306357e-08
-1.5136105e-11
-8.5501924e-09
-4.9957123e-14
-6.2386361e-08
1.5111964e-11
-6.2388288e-08
1.7866785e-11
-8.5546555e-09
6.4210216e-12
4.0302055e-08
3.0636528e-08
-8.3188421e-12
3.0646509e-08
-1.6615347e-11
4.031466e-08
-1.5366231e-11
-8.5514364e-09
-8.3573269e-14
-6.2401638e-08
1.513527e-11
-6.2403502e-08
1.6480366e-11
-8.5559954e-09
8.2919682e-12
4.0310249e-08
3.0644823e-08
-6.2244345e-12
3.065274e-08
-1.7319629e-11
4.0325766e-08
-1.4657475e-11
-8.5540873e-09
-1.9434381e-13
-6.2416091e-08
1.4386908e-11
-6.2418073e-08
1.7107317e-11
-8.5587048e-09
6.1124694e-12
4.0321254e-08
3.0650941e-08
-8.0362794e-12
3.0660779e-08
-1.5992264e-11
4.0333728e-08
-1.4860376e-11
-8.5552143e-09
-1.9856182e-13
-6.2430748e-08
1.4433594e-11
-6.24327e-08
1.5743791e-11
-8.56001e-09
7.9769477e-12
4.0329027e-08
3.065892e-08
-5.9492459e-12
3.0666735e-08
-1.6676641e-11
4.0344466e-08
-1.4131982e-11
-8.5577477e-09
-2.8258448e-13
-6.2444586e-08
1.3711803e-11
-6.2446684e-08
1.6378737e-11
-8.5626659e-09
5.8136983e-12
4.0339602e-08
3.0664739e-08
-7.7454483e-12
3.0674483e-08
-1.5343271e-11
4.0352069e-08
-1.4311426e-11
-8.5587749e-09
-2.6272641e-13
-6.2458631e-08
1.3776499e-11
-6.2460719e-08
1.5034228e-11
-8.5639188e-09
7.6702332e-12
4.0346971e-08
3.0672412e-08
-5.666606e-12
3.0680156e-08
-1.6010345e-11
4.0362424e-08
-1.3567754e-11
-8.5612063e-09
-3.2533476e-13
-6.2471862e-08
1.3076152e-11
-6.2474109e-08
1.5673864e-11
-8.5665056e-09
5.5221035e-12
4.0357133e-08
3.067794e-08
-7.4482716e-12
3.0687607e-08
-1.4673895e-11
4.0369655e-08
-1.3728415e-11
-8.5621473e-09
-2.8679571e-13
-6.24853e-08
1.3154303e-11
-6.2487546e-08
1.4345476e-11
-8.5676922e-09
7.3697817e-12
4.0364114e-08
3.0685312e-08
-5.3786406e-12
3.0692992e-08
-1.5326926e-11
4.0379614e-08
-1.29743e-11
-8.5644888e-09
-3.3312034e-13
-6.249793e-08
1.2471168e-11
-6.250034e-08
1.4987505e-11
-8.5701977e-09
5.2360117e-12
4.0373875e-08
3.0690553e-08
-7.1470957e-12
3.0700142e-08
-1.3990658e-11
4.0386463e-08
-1.3121049e-11
-8.5653542e-09
-2.8086499e-13
-6.2510766e-08
1.2559182e-11
-6.2513176e-08
1.3673233e-11
-8.5713073e-09
7.0743882e-12
4.0380479e-08
3.069763e-08
-5.0877229e-12
3.0705236e-08
-1.4633098e-11
4.0396019e-08
-1.2361245e-11
-8.5676149e-09
-3.1546722e-13
-6.2522801e-08
1.1889987e-11
-6.2525371e-08
1.4316251e-11
-8.5737228e-09
4.9545083e-12
4.038985e-08
3.070259e-08
-6.8443662e-12
3.0712083e-08
-1.3300242e-11
4.040248e-08
-1.249872e-11
-8.5684124e-09
-2.5377937e-13
-6.2535042e-08
1.1985229e-11
-6.2537606e-08
1.3014853e-11
-8.5747482e-09
6.7835121e-12
4.0396087e-08
3.0709375e-08
-4.7962207e-12
3.0716886e-08
-1.3935447e-11
4.041163e-08
-1.1737581e-11
-8.5705993e-09
-2.8049363e-13
-6.2546489e-08
1.1327605e-11
-6.2549203e-08
1.3658191e-11
-8.577068e-09
4.6772657e-12
4.0405077e-08
3.0714058e-08
-6.5424331e-12
3.072343e-08
-1.2608992e-11
4.0417701e-08
-1.1869959e-11
-8.5713345e-09
-2.1289448e-13
-6.2558142e-08
1.1428294e-11
-6.2560841e-08
1.236903e-11
-8.5780048e-09
6.4971114e-12
4.0410954e-08
3.0720557e-08
-4.5063506e-12
3.0727943e-08
-1.3240057e-11
4.0426446e-08
-1.111129e-11
-8.5734523e-09
-2.3480541e-13
-6.2569008e-08
1.0780644e-11
-6.2571846e-08
1.3012588e-11
-8.5802261e-09
4.4043854e-12
4.0419572e-08
3.0724967e-08
-6.2434443e-12
3.0734189e-08
-1.1922639e-11
4.0432129e-08
-1.1242187e-11
-8.5741292e-09
-1.6407619e-13
-6.2580083e-08
1.0885713e-11
-6.2582892e-08
1.1735475e-11
-8.5810721e-09
6.2154942e-12
4.0425096e-08
3.0731184e-08
-4.2201009e-12
3.0738415e-08
-1.255232e-11
4.0440472e-08
-1.048919e-11
-8.5761814e-09
-1.8357188e-13
-6.2590378e-08
1.0247068e-11
-6.2593312e-08
1.2379571e-11
-8.5831939e-09
4.1362592e-12
4.0433349e-08
3.0735325e-08
-5.9492913e-12
3.0744367e-08
-1.1246177e-11
4.0445773e-08
-1.0621643e-11
-8.5768026e-09
-1.1183022e-13
-6.2600885e-08
1.0356005e-11
-6.2603777e-08
1.1114624e-11
-8.583949e-09
5.9391912e-12
4.0438528e-08
3.0741266e-08
-3.9391963e-12
3.0748312e-08
-1.1876863e-11
4.0453722e-08
-9.8769298e-12
-8.5787916e-09
-1.3069232e-13
-6.2610621e-08
9.7258673e-12
-6.2613623e-08
1.1759848e-11
-8.5859724e-09
3.8734532e-12
4.0446424e-08
3.0745145e-08
-5.6615901e-12
3.0753976e-08
-1.0583831e-11
4.0458648e-08
-1.0013424e-11
-8.5793589e-09
-5.9491458e-14
-6.2620571e-08
9.8385679e-12
-6.2623518e-08
1.050737e-11
-8.5866379e-09
5.6688523e-12
4.0451267e-08
3.0750816e-08
-3.6650898e-12
3.0757647e-08
-1.121754e-11
4.0466211e-08
-9.2790581e-12
-8.5812866e-09
-7.8996743e-14
-6.2629761e-08
9.2167756e-12
-6.2632803e-08
1.1154475e-11
-8.5885651e-09
3.6166149e-12
4.0458814e-08
3.0754437e-08
-5.3816813e-12
3.076303e-08
-9.939065e-12
4.0470772e-08
-9.4215722e-12
-8.5818011e-09
-9.4275299e-15
-6.263917e-08
9.333415e-12
-6.2642143e-08
9.9148582e-12
-8.5891435e-09
5.4051642e-12
4.0463328e-08
3.0759844e-08
-3.3989692e-12
3.0766436e-08
-1.0577466e-11
4.0477961e-08
-8.6991266e-12
-8.5836688e-09
-3.0445713e-14
-6.2647829e-08
8.7200257e-12
-6.2650884e-08
1.0564664e-11
-8.5909777e-09
3.3664031e-12
4.0470535e-08
3.0763216e-08
-5.1106412e-12
3.0771548e-08
-9.3146357e-12
4.0482169e-08
-8.8491922e-12
-8.5841315e-09
3.6769429e-14
-6.2656712e-08
8.8409518e-12
-6.2659685e-08
9.3383148e-12
-8.5914721e-09
5.1487924e-12
4.0474728e-08
3.0768366e-08
-3.1417709e-12
3.0774696e-08
-9.9590691e-12
4.0488996e-08
-8.1398092e-12
-8.5859401e-09
1.3688068e-14
-6.2664856e-08
8.2361502e-12
-6.2667897e-08
9.9916439e-12
-8.5932173e-09
3.123437e-12
4.0481606e-08
3.0771495e-08
-4.8492997e-12
3.0779547e-08
-8.7126467e-12
4.0492863e-08
-8.2985668e-12
-8.5863517e-09
7.811304e-14
-6.267323e-08
8.3618004e-12
-6.2676178e-08
8.7789277e-12
-8.5936317e-09
4.9003382e-12
4.0485488e-08
3.0776396e-08
-2.8941999e-12
3.0782447e-08
-9.3641584e-12
4.0499343e-08
-7.6030178e-12
-8.5881022e-09
5.2663003e-14
-6.2680875e-08
7.7658277e-12
-6.2683882e-08
9.4365522e-12
-8.5952921e-09
2.8882618e-12
4.0492045e-08
3.077929e-08
-4.5982613e-12
3.0787047e-08
-8.1346155e-12
4.0502883e-08
-7.771272e-12
-8.5884632e-09
1.1407959e-13
-6.2688758e-08
7.8966666e-12
-6.2691662e-08
8.2377608e-12
-8.5956307e-09
4.6603123e-12
4.0495626e-08
3.0783951e-08
-2.6567507e-12
3.078971e-08
-8.7939861e-12
4.050903e-08
-7.090013e-12
-8.5901567e-09
8.6139142e-14
-6.2695925e-08
7.3097688e-12
-6.2698875e-08
8.9003717e-12
-8.5972111e-09
2.6613278e-12
4.0501874e-08
3.0786618e-08
-4.3579273e-12
3.0794069e-08
-7.5815403e-12
4.0512257e-08
-7.268283e-12
-8.5904679e-09
1.4449144e-13
-6.2703335e-08
7.4462441e-12
-6.2706175e-08
7.7157001e-12
-8.5974783e-09
4.4291198e-12
4.0505164e-08
3.0791048e-08
-2.4297306e-12
3.0796505e-08
-8.2493164e-12
4.0518086e-08
-6.6015043e-12
-8.5921052e-09
1.1407288e-13
-6.2710041e-08
6.8686367e-12
-6.271292e-08
8.3838871e-12
-8.5989834e-09
2.4429795e-12
4.0511114e-08
3.0793496e-08
-4.1285198e-12
3.0800634e-08
-7.0539656e-12
4.0521015e-08
-6.7900691e-12
-8.5923672e-09
1.6942228e-13
-6.2716998e-08
7.0111484e-12
-6.2719759e-08
7.2134221e-12
-8.5991836e-09
4.2070539e-12
4.0514123e-08
3.0797704e-08
-2.2132811e-12
3.0802854e-08
-7.7304902e-12
4.0526542e-08
-6.1377404e-12
-8.5939496e-09
1.3663288e-13
-6.2723263e-08
6.4429928e-12
-6.2726056e-08
7.8876634e-12
-8.6006182e-09
2.2334528e-12
4.0519786e-08
3.0799942e-08
-3.9101034e-12
3.0806765e-08
-6.5520449e-12
4.0529187e-08
-6.3366798e-12
-8.5941633e-09
1.8912278e-13
-6.2729787e-08
6.5918744e-12
-6.2732457e-08
6.7313821e-12
-8.6007558e-09
3.9942962e-12
4.0522526e-08
3.0803938e-08
-2.0074013e-12
3.0808778e-08
-7.2374853e-12
4.0534426e-08
-5.6985907e-12
-8.5956919e-09
1.5413335e-13
-6.273563e-08
6.0332647e-12
-6.2738326e-08
7.4120419e-12
-8.6021246e-09
2.0328768e-12
4.0527914e-08
3.0805975e-08
-3.7026083e-12
3.0812482e-08
-6.0755995e-12
4.0536802e-08
-5.9078211e-12
-8.5958582e-09
2.0396133e-13
-6.274174e-08
6.1887722e-12
-6.274431e-08
6.2698136e-12
-8.602204e-09
3.7909219e-12
4.0530395e-08
3.0809767e-08
-1.8119678e-12
3.08143e-08
-6.7699746e-12
4.054177e-08
-5.2836157e-12
-8.5973343e-09
1.6698282e-13
-6.2747181e-08
5.6397283e-12
-6.2749773e-08
6.9571447e-12
-8.6035115e-09
1.8412804e-12
4.053552e-08
3.0811613e-08
-3.5058502e-12
3.0817807e-08
-5.6241736e-12
4.054389e-08
-5.5029219e-12
-8.5974542e-09
2.1437901e-13
-6.2752897e-08
5.8020361e-12
-6.2755359e-08
5.8287385e-12
-8.6035367e-09
3.5969071e-12
4.0537754e-08
3.0815211e-08
-1.6267549e-12
3.0819439e-08
-6.327378e-12
4.0548601e-08
-4.8921305e-12
-8.5988794e-09
1.7564343e-13
-6.2757955e-08
5.262503e-12
-6.2760436e-08
6.5228882e-12
-8.6047872e-09
1.6586004e-12
4.0542627e-08
3.0816874e-08
-3.3195504e-12
3.0822759e-08
-5.1970843e-12
4.055048e-08
-5.1211934e-12
-8.5989541e-09
2.2085415e-13
-6.2763296e-08
5.4317037e-12
-6.2765646e-08
5.4079821e-12
-8.6047622e-09
3.4121387e-12
4.0544625e-08
3.0820287e-08
-1.4514532e-12
3.0824217e-08
-5.9089106e-12
4.0554947e-08
-4.5232585e-12
-8.6003297e-09
1.8060072e-13
-6.276799e-08
4.9015535e-12
-6.2770357e-08
6.1090007e-12
-8.6059599e-09
1.4846914e-12
4.0549258e-08
3.0821777e-08
-3.1433532e-12
3.0827361e-08
-4.793466e-12
4.0556599e-08
-4.7616791e-12
-8.6003606e-09
2.2387586e-13
-6.2772975e-08
5.0776623e-12
-6.277521e-08
5.0071925e-12
-8.6058882e-09
3.2364254e-12
4.0551031e-08
3.0825014e-08
-1.2856852e-12
3.0828652e-08
-5.5136251e-12
4.0560837e-08
-4.1759791e-12
-8.6016882e-09
1.8234091e-13
-6.2777324e-08
4.5566995e-12
-6.2779575e-08
5.7150437e-12
-8.6070369e-09
1.3193367e-12
4.0555435e-08
3.0826338e-08
-2.9768424e-12
3.083163e-08
-4.4123113e-12
4.0562274e-08
-4.4232991e-12
-8.6016765e-09
2.2392485e-13
-6.278197e-08
4.7396588e-12
-6.278409e-08
4.6258625e-12
-8.6069222e-09
3.0695082e-12
4.0556993e-08
3.0829408e-08
-1.1290214e-12
3.0832764e-08
-5.1404502e-12
4.0566295e-08
-3.8491674e-12
-8.6029578e-09
1.8133414e-13
-6.2785991e-08
4.2276264e-12
-6.2788127e-08
5.3404334e-12
-8.6080254e-09
1.1622584e-12
4.056118e-08
3.0830575e-08
-2.8195549e-12
3.0835584e-08
-4.0525057e-12
4.0567529e-08
-4.1048864e-12
-8.6029049e-09
2.2145934e-13
-6.2790317e-08
4.4173136e-12
-6.2792322e-08
4.2633509e-12
-8.6078706e-09
2.9110714e-12
4.0562534e-08
3.0833486e-08
-9.8099238e-13
3.0836571e-08
-4.7882231e-12
4.0571346e-08
-3.5416281e-12
-8.6041416e-09
1.7802303e-13
-6.2794027e-08
3.9139011e-12
-6.2796048e-08
4.9844635e-12
-8.6089317e-09
1.0131278e-12
4.0566513e-08
3.0834504e-08
-2.6709939e-12
3.0839242e-08
-3.7128587e-12
4.0572389e-08
-3.8052186e-12
-8.6040489e-09
2.1690559e-13
-6.2798049e-08
4.110136e-12
-6.2799941e-08
3.9189052e-12
-8.6087398e-09
2.7607532e-12
4.0567673e-08
3.0837265e-08
-8.4110089e-13
3.0840089e-08
-4.455718e-12
4.0576013e-08
-3.252124e-12
-8.6052427e-09
1.7281531e-13
-6.2801464e-08
3.614987e-12
-6.2803374e-08
4.6463263e-12
-8.6097617e-09
8.7157537e-13
4.0571456e-08
3.0838141e-08
-2.5306396e-12
3.084262e-08
-3.3921293e-12
4.0576876e-08
-3.5230433e-12
-8.6051115e-09
2.1065239e-13
-6.2805198e-08
3.8175402e-12
-6.280698e-08
3.591682e-12
-8.6095354e-09
2.6181544e-12
4.0572431e-08
3.084076e-08
-7.0883145e-13
3.0843335e-08
-4.1416707e-12
4.0580318e-08
-2.9793992e-12
-8.6062641e-09
1.660793e-13
-6.2808334e-08
3.3302602e-12
-6.2810135e-08
4.325133e-12
-8.6105209e-09
7.3719963e-13
4.0576027e-08
3.0841502e-08
-2.3979581e-12
3.0845733e-08
-3.089049e-12
4.058101e-08
-3.257099e-12
-8.606096e-09
2.0304789e-13
-6.2811794e-08
3.5388608e-12
-6.2813471e-08
3.2807667e-12
-8.6102625e-09
2.4828487e-12
4.0576826e-08
3.0843985e-08
-5.8365875e-13
3.0846322e-08
-3.8447989e-12
4.058428e-08
-2.7221975e-12
-8.607209e-09
1.5814208e-13
-6.2814665e-08
3.0590254e-12
-6.2816363e-08
4.0199336e-12
-8.6112141e-09
6.0957533e-13
4.0580245e-08
3.0844599e-08
-2.2724097e-12
3.0848594e-08
-2.8023397e-12
4.0584811e-08
-3.0061323e-12
-8.6070053e-09
1.9439838e-13
-6.2817866e-08
3.273369e-12
-6.2819442e-08
2.9851918e-12
-8.6109258e-09
2.3543896e-12
4.0580877e-08
3.0846953e-08
-4.6505475e-13
3.0849065e-08
-3.5638186e-12
4.0587919e-08
-2.479278e-12
-8.6080803e-09
1.4928943e-13
-6.2820485e-08
2.8005309e-12
-6.2822084e-08
3.7297331e-12
-8.6118458e-09
4.8826123e-13
4.0584126e-08
3.0847446e-08
-2.1534554e-12
3.0851218e-08
-2.530729e-12
4.0588297e-08
-2.7689112e-12
-8.6078423e-09
1.8496955e-13
-6.2823439e-08
3.020287e-12
-6.2824919e-08
2.703953e-12
-8.6115295e-09
2.2323181e-12
4.0584599e-08
3.0849678e-08
-3.5249473e-13
3.0851576e-08
-3.297459e-12
4.0591251e-08
-2.2494266e-12
-8.6088809e-09
1.397672e-13
-6.2825819e-08
2.5539828e-12
-6.2827325e-08
3.453508e-12
-8.6124199e-09
3.7280603e-13
4.0587687e-08
3.0850056e-08
-2.0405625e-12
3.0853617e-08
-2.2729632e-12
4.0591484e-08
-2.5442354e-12
-8.60861e-09
1.7498802e-13
-6.2828539e-08
2.778802e-12
-6.2829929e-08
2.4360241e-12
-8.6120773e-09
2.1161683e-12
4.0588008e-08
3.0852172e-08
-2.45462e-13
3.0853868e-08
-3.0444729e-12
4.0594291e-08
-2.0314652e-12
-8.6096136e-09
1.2978357e-13
-6.2830691e-08
2.3185586e-12
-6.2832109e-08
3.1902199e-12
-8.6129399e-09
2.6275462e-13
4.0590943e-08
3.0852439e-08
-1.9332088e-12
3.08558e-08
-2.0278171e-12
4.0594386e-08
-2.3309445e-12
-8.609311e-09
1.6464423e-13
-6.2833187e-08
2.5480786e-12
-6.2834492e-08
2.1803709e-12
-8.6125725e-09
2.0054739e-12
4.0591119e-08
3.0854444e-08
-1.4345164e-13
3.0855949e-08
-2.8036469e-12
4.0597055e-08
-1.8242586e-12
-8.6102811e-09
1.1951214e-13
-6.2835122e-08
2.0934193e-12
-6.2836457e-08
2.9388284e-12
-8.6134089e-09
1.5765318e-13
4.0593908e-08
3.0854606e-08
-1.8308862e-12
3.085778e-08
-1.7941025e-12
4.0597019e-08
-2.1279241e-12
-8.609948e-09
1.5409539e-13
-6.2837404e-08
2.3272712e-12
-6.2838631e-08
1.9359618e-12
-8.613018e-09
1.8997726e-12
4.0593944e-08
3.0856506e-08
-4.5974304e-14
3.0857831e-08
-2.5738079e-12
4.0599555e-08
-1.62672e-12
-8.6108858e-09
1.0909504e-13
-6.2839131e-08
1.8777201e-12
-6.2840391e-08
2.6983019e-12
-8.6138297e-09
5.7053437e-14
4.0596593e-08
3.0856567e-08
-1.7331044e-12
3.0859564e-08
-1.5706749e-12
4.0599393e-08
-1.93411e-12
-8.6105232e-09
1.4346923e-13
-6.284121e-08
2.1155333e-12
-6.2842364e-08
1.7017789e-12
-8.6134165e-09
1.7986101e-12
4.0596497e-08
3.0858366e-08
4.7441408e-14
3.0859522e-08
-2.3538298e-12
4.0601803e-08
-1.4378147e-12
-8.61143e-09
9.8647017e-14
-6.2842737e-08
1.6706211e-12
-6.2843927e-08
2.4676269e-12
-8.6142047e-09
-3.9483406e-14
4.0599012e-08
3.085833e-08
-1.6393927e-12
3.0861161e-08
-1.3564385e-12
4.060152e-08
-1.7484921e-12
-8.6110389e-09
1.3286793e-13
-6.284462e-08
1.9120287e-12
-6.2845707e-08
1.4768267e-12
-8.6137702e-09
1.701544e-12
4.0598787e-08
3.0860032e-08
1.3724626e-13
3.0861029e-08
-2.1426384e-12
4.0603808e-08
-1.256563e-12
-8.6119159e-09
8.8258786e-14
-6.2845956e-08
1.4712962e-12
-6.2847081e-08
2.2458177e-12
-8.6145359e-09
-1.3238285e-13
4.0601173e-08
3.0859904e-08
-1.5493028e-12
3.0862577e-08
-1.1503515e-12
4.0603409e-08
-1.5701166e-12
-8.6114972e-09
1.2237134e-13
-6.2847649e-08
1.7159394e-12
-6.2848676e-08
1.2601412e-12
-8.614081e-09
1.6081476e-12
4.0600825e-08
3.0861511e-08
2.2386887e-13
3.0862359e-08
-1.9392151e-12
4.0605581e-08
-1.0820422e-12
-8.6123453e-09
7.8000891e-14
-6.2848801e-08
1.2789421e-12
-6.2849868e-08
2.031924e-12
-8.6148253e-09
-2.2205447e-13
4.0603086e-08
3.0861294e-08
-1.4624101e-12
3.0863821e-08
-9.514293e-13
4.060507e-08
-1.3980881e-12
-8.6118999e-09
1.1204116e-13
-6.2850312e-08
1.5264747e-12
-6.2851284e-08
1.0507974e-12
-8.6143506e-09
1.5180123e-12
4.0602619e-08
3.0862811e-08
3.0771355e-13
3.0863518e-08
-1.7426014e-12
4.0607128e-08
-9.1338925e-13
-8.6127201e-09
6.7927332e-14
-6.2851285e-08
1.0927868e-12
-6.28523e-08
1.825039e-12
-8.6150741e-09
-3.0888834e-13
4.0604761e-08
3.0862506e-08
-1.3783162e-12
3.0864896e-08
-7.5874854e-13
4.0606508e-08
-1.2315713e-12
-8.6122486e-09
1.0192418e-13
-6.2852619e-08
1.3428788e-12
-6.2853542e-08
8.4791669e-13
-8.6145803e-09
1.4307511e-12
4.0604178e-08
3.0863937e-08
3.8915848e-13
3.0864512e-08
-1.5519018e-12
4.0608458e-08
-7.4980153e-13
-8.6130418e-09
5.807934e-14
-6.2853419e-08
9.1209624e-13
-6.2854388e-08
1.6243055e-12
-8.6152839e-09
-3.9325242e-13
4.0606203e-08
3.0863548e-08
-1.2966497e-12
3.0865808e-08
-5.7145056e-13
4.0607732e-08
-1.0697928e-12
-8.6125449e-09
9.2056334e-14
-6.2854582e-08
1.1644388e-12
-6.2855461e-08
6.5067359e-13
-8.6147714e-09
1.346001e-12
4.0605507e-08
3.0864893e-08
4.6855459e-13
3.0865344e-08
-1.366288e-12
4.0609575e-08
-5.9053878e-13
-8.6133117e-09
4.8488589e-14
-6.2855212e-08
7.3618349e-13
-6.285614e-08
1.4289245e-12
-8.6154556e-09
-4.7549002e-13
4.0607419e-08
3.0864422e-08
-1.2170685e-12
3.086656e-08
-3.8874494e-13
4.0608746e-08
-9.1204244e-13
-8.61279e-09
8.2465766e-14
-6.2856208e-08
9.9049217e-13
-6.285705e-08
4.5830366e-13
-8.6149247e-09
1.2634259e-12
4.0606613e-08
3.0865684e-08
5.46223e-13
3.0866019e-08
-1.1850018e-12
4.0610486e-08
-4.3492489e-13
-8.6135313e-09
3.9181236e-14
-6.2856674e-08
5.6441557e-13
-6.2857567e-08
1.2381609e-12
-8.61559e-09
-5.5591664e-13
4.0608415e-08
3.0865133e-08
-1.1392618e-12
3.0867158e-08
-2.0991342e-13
4.0609556e-08
-7.5767556e-13
-8.6129852e-09
7.3176944e-14
-6.2857506e-08
8.2043458e-13
-6.2858315e-08
2.7011014e-13
-8.6150411e-09
1.1827198e-12
4.0607502e-08
3.0866315e-08
6.2245343e-13
3.086654e-08
-1.0073594e-12
4.0611193e-08
-2.8235038e-13
-8.6137015e-09
3.018087e-14
-6.2857811e-08
3.9622169e-13
-6.2858673e-08
1.0513517e-12
-8.6156878e-09
-6.3481704e-13
4.0609195e-08
3.0865684e-08
-1.0629515e-12
3.0867602e-08
-3.4313187e-14
4.0610164e-08
-6.061152e-13
-8.6131315e-09
6.4213222e-14
-6.2858482e-08
6.5372822e-13
-6.2859264e-08
8.5471329e-14
-8.6151211e-09
1.1036091e-12
4.0608176e-08
3.0866787e-08
6.9750188e-13
3.086691e-08
-8.3275548e-13
4.0611702e-08
-1.3227401e-13
-8.6138232e-09
2.1511705e-14
-6.2858628e-08
2.3110142e-13
-6.2859466e-08
8.6791331e-13
-8.6157495e-09
-7.1244237e-13
4.0609764e-08
3.0866079e-08
-9.8789478e-13
3.0867897e-08
1.3861747e-13
4.0610575e-08
-4.5685429e-13
-8.6132297e-09
5.5600757e-14
-6.2859142e-08
4.899098e-13
-6.2859902e-08
-9.6151006e-14
-8.6151652e-09
1.0258562e-12
4.0608641e-08
3.0867104e-08
7.7158912e-13