/*--------------------------------*- C++ -*----------------------------------*\
| =========                 |                                                 |
| \\      /  F ield         | OpenFOAM: The Open Source CFD Toolbox           |
|  \\    /   O peration     | Version:  5.x                                   |
|   \\  /    A nd           | Web:      www.OpenFOAM.org                      |
|    \\/     M anipulation  |                                                 |
\*---------------------------------------------------------------------------*/
FoamFile
{
    version     2.0;
    format      ascii;
    class       volSymmTensorField;
    location    "3";
    object      sigma_0;
}
// * * * * * * * * * * * * * * * * * * * * * * * * * * * * * * * * * * * * * //

dimensions      [0 2 -2 0 0 0 0];

internalField   nonuniform List<symmTensor> 
1920
(
(0.0012247122 0.0089632441 0 -0.0059543897 0 0)
(-0.00032246787 0.0030388838 0 0.0011421388 0 0)
(-0.00092114256 0.0022429096 0 0.00064991576 0 0)
(-0.00046591487 0.00073890981 0 0.0004964872 0 0)
(-0.00046588734 -0.00073891869 0 0.0004964597 0 0)
(-0.00092115818 -0.0022428724 0 0.00064993143 0 0)
(-0.00032246952 -0.003038868 0 0.0011421416 0 0)
(0.0012247112 -0.0089632441 0 -0.0059543869 0 0)
(0.0033109134 0.0057399885 0 -0.0026026854 0 0)
(0.00025061249 0.0010892536 0 0.00047009152 0 0)
(-0.0020763257 0.00017952017 0 0.001717735 0 0)
(-0.0020249202 0.0001500416 0 0.0018266599 0 0)
(-0.0020249161 -0.00015003944 0 0.0018266518 0 0)
(-0.0020763374 -0.00017946332 0 0.0017177495 0 0)
(0.00025061426 -0.0010892625 0 0.00047008514 0 0)
(0.003310913 -0.0057399912 0 -0.0026026847 0 0)
(0.0026388156 0.0049620667 0 -0.0035452349 0 0)
(0.00073505493 0.00044205087 0 -0.00044588489 0 0)
(-0.0016042565 9.2905233e-05 0 0.00140912 0 0)
(-0.0019217612 3.0201505e-05 0 0.0018210854 0 0)
(-0.0019217759 -3.0203866e-05 0 0.0018211052 0 0)
(-0.0016042538 -9.3008758e-05 0 0.001409111 0 0)
(0.0007350578 -0.00044206069 0 -0.0004458843 0 0)
(0.0026388159 -0.0049620655 0 -0.0035452371 0 0)
(0.0020190096 0.004648863 0 -0.0029399451 0 0)
(0.00079478654 0.00086532106 0 -0.0006870877 0 0)
(-0.0011057913 0.00012368926 0 0.0010329436 0 0)
(-0.0017051232 -1.1177406e-05 0 0.0016851693 0 0)
(-0.0017051103 1.1168373e-05 0 0.0016851551 0 0)
(-0.001105823 -0.00012366645 0 0.0010329764 0 0)
(0.00079479031 -0.00086531562 0 -0.00068709244 0 0)
(0.00201901 -0.0046488621 0 -0.0029399448 0 0)
(0.0015109943 0.0044529998 0 -0.0021707966 0 0)
(0.00069598093 0.0012573678 0 -0.00067775356 0 0)
(-0.00070539296 0.00045300358 0 0.00065460615 0 0)
(-0.0014801283 4.5889649e-05 0 0.0014599616 0 0)
(-0.0014801761 -4.5896285e-05 0 0.0014600124 0 0)
(-0.0007053394 -0.00045301502 0 0.00065455507 0 0)
(0.00069599269 -0.0012573795 0 -0.00067776564 0 0)
(0.0015110056 -0.004453001 0 -0.0021708091 0 0)
(0.0010606866 0.0042734578 0 -0.0015754932 0 0)
(0.00057330217 0.0016371765 0 -0.00061398555 0 0)
(-0.0006721399 0.00050616016 0 0.0006282746 0 0)
(-0.0010082347 0.00015291199 0 0.00099310338 0 0)
(-0.0010082216 -0.00015292308 0 0.0009930868 0 0)
(-0.00067208121 -0.00050622516 0 0.00062821966 0 0)
(0.00057331764 -0.0016371645 0 -0.00061400097 0 0)
(0.001060685 -0.0042734527 0 -0.0015754901 0 0)
(0.00077391863 0.004155808 0 -0.0012275625 0 0)
(0.00042375727 0.0020397597 0 -0.00051202959 0 0)
(-0.00034207977 0.00088623111 0 0.00030333217 0 0)
(-0.00079039692 0.00022815327 0 0.00078271411 0 0)
(-0.00079035886 -0.00022817227 0 0.00078267727 0 0)
(-0.00034206357 -0.00088623035 0 0.00030331477 0 0)
(0.00042377315 -0.0020397513 0 -0.00051204443 0 0)
(0.00077392454 -0.0041557996 0 -0.0012275686 0 0)
(0.00053037996 0.0040598598 0 -0.00094878998 0 0)
(0.00033933067 0.00220889 0 -0.00045473159 0 0)
(-0.00022557489 0.0010860503 0 0.00018555479 0 0)
(-0.00059462614 0.00029818802 0 0.00059148397 0 0)
(-0.0005946578 -0.00029818388 0 0.00059151461 0 0)
(-0.00022558276 -0.0010860214 0 0.00018556286 0 0)
(0.00033933562 -0.0022088997 0 -0.0004547378 0 0)
(0.00053038372 -0.0040598517 0 -0.000948793 0 0)
(0.0003712466 0.0040004074 0 -0.00076764603 0 0)
(0.00023762431 0.0024038541 0 -0.00037544816 0 0)
(-0.00014948941 0.0012361548 0 0.00010477522 0 0)
(-0.0004301633 0.00036092677 0 0.0004281467 0 0)
(-0.00043012054 -0.00036094957 0 0.00042810544 0 0)
(-0.00014946099 -0.0012361813 0 0.00010474685 0 0)
(0.00023764767 -0.0024038337 0 -0.00037547175 0 0)
(0.00037125508 -0.0040003948 0 -0.00076765388 0 0)
(0.00025067987 0.003957721 0 -0.00063354019 0 0)
(0.00017311912 0.0025138425 0 -0.00032643564 0 0)
(-9.5678851e-05 0.0013572497 0 4.5774615e-05 0 0)
(-0.00029638174 0.00041506551 0 0.00029395341 0 0)
(-0.00029640895 -0.00041506007 0 0.00029397985 0 0)
(-9.5678697e-05 -0.0013572296 0 4.5774719e-05 0 0)
(0.0001731232 -0.0025138447 0 -0.00032643959 0 0)
(0.00025068378 -0.0039577072 0 -0.00063354328 0 0)
(0.0001644855 0.0039287918 0 -0.00053927313 0 0)
(0.00012383454 0.0025932315 0 -0.00028812896 0 0)
(-5.945436e-05 0.0014495334 0 4.9885727e-06 0 0)
(-0.0002005998 0.00045582682 0 0.00019720704 0 0)
(-0.00020059509 -0.00045583861 0 0.00019720242 0 0)
(-5.9437138e-05 -0.0014495533 0 4.9711557e-06 0 0)
(0.00012384828 -0.0025932162 0 -0.00028814278 0 0)
(0.00016449331 -0.0039287749 0 -0.00053927948 0 0)
(0.00010575978 0.0039098747 0 -0.00047582199 0 0)
(8.5284898e-05 0.0026522504 0 -0.00025715172 0 0)
(-3.6156819e-05 0.0015162407 0 -2.1955742e-05 0 0)
(-0.00013388771 0.00048551846 0 0.00012949405 0 0)
(-0.00013381334 -0.00048555501 0 0.00012941948 0 0)
(-3.615652e-05 -0.0015162287 0 -2.1956164e-05 0 0)
(8.52891e-05 -0.0026522429 0 -0.00025715547 0 0)
(0.00010576303 -0.0039098571 0 -0.00047582433 0 0)
(6.7061432e-05 0.0038978289 0 -0.00043437634 0 0)
(5.7306618e-05 0.0026928667 0 -0.00023420226 0 0)
(-2.1558278e-05 0.0015628867 0 -3.9298467e-05 0 0)
(-8.7731485e-05 0.00050679013 0 8.24672e-05 0 0)
(-8.7914639e-05 -0.00050672296 0 8.2650619e-05 0 0)
(-2.1552618e-05 -0.0015628976 0 -3.9304186e-05 0 0)
(5.7312619e-05 -0.0026928535 0 -0.00023420824 0 0)
(6.7064414e-05 -0.0038978088 0 -0.00043437734 0 0)
(4.1766231e-05 0.0038901983 0 -0.00040749886 0 0)
(3.7769431e-05 0.0027198468 0 -0.00021793518 0 0)
(-1.2519019e-05 0.0015949616 0 -5.0306854e-05 0 0)
(-5.7091751e-05 0.00052139954 0 5.1151508e-05 0 0)
(-5.6797065e-05 -0.0005215376 0 5.0855806e-05 0 0)
(-1.2520265e-05 -0.0015949599 0 -5.0305941e-05 0 0)
(3.7769468e-05 -0.0027198379 0 -0.00021793442 0 0)
(4.1769086e-05 -0.0038901794 0 -0.00040750061 0 0)
(2.5491382e-05 0.0038854369 0 -0.00039033152 0 0)
(2.4410858e-05 0.0027374817 0 -0.00020666344 0 0)
(-7.0486735e-06 0.0016165458 0 -5.7141496e-05 0 0)
(-3.6062787e-05 0.00053167193 0 2.9628463e-05 0 0)
(-3.6467249e-05 -0.00053150759 0 3.003384e-05 0 0)
(-7.0507028e-06 -0.0016165511 0 -5.7139446e-05 0 0)
(2.4410074e-05 -0.0027374723 0 -0.00020666257 0 0)
(2.5491293e-05 -0.0038854163 0 -0.00039032936 0 0)
(1.5204108e-05 0.0038825252 0 -0.00037955593 0 0)
(1.5479853e-05 0.002748764 0 -0.00019904178 0 0)
(-3.7921546e-06 0.0016308726 0 -6.1314103e-05 0 0)
(-2.2467387e-05 0.00053849732 0 1.5688612e-05 0 0)
(-2.1971909e-05 -0.00053873375 0 1.5191588e-05 0 0)
(-3.7952493e-06 -0.0016308784 0 -6.1311466e-05 0 0)
(1.5477378e-05 -0.0027487549 0 -0.00019903844 0 0)
(1.5204479e-05 -0.0038825064 0 -0.00037955504 0 0)
(8.8155965e-06 0.003880785 0 -0.00037291391 0 0)
(9.6105637e-06 0.0027558786 0 -0.00019397795 0 0)
(-1.9166083e-06 0.0016401787 0 -6.3789464e-05 0 0)
(-1.3723007e-05 0.00054300053 0 6.7138414e-06 0 0)
(-1.4036674e-05 -0.00054287217 0 7.0283123e-06 0 0)
(-1.9221431e-06 -0.0016401819 0 -6.3783942e-05 0 0)
(9.605663e-06 -0.0027558726 0 -0.00019397289 0 0)
(8.8134248e-06 -0.0038807658 0 -0.00037290985 0 0)
(4.9305607e-06 0.0038797757 0 -0.00036890581 0 0)
(5.8283425e-06 0.0027602667 0 -0.00019068208 0 0)
(-8.6639342e-07 0.0016461379 0 -6.5222338e-05 0 0)
(-8.3201469e-06 0.00054585212 0 1.1602716e-06 0 0)
(-8.2125343e-06 -0.000545921 0 1.0518796e-06 0 0)
(-8.7048074e-07 -0.0016461476 0 -6.5218746e-05 0 0)
(5.8246538e-06 -0.002760259 0 -0.00019067765 0 0)
(4.9293769e-06 -0.0038797582 0 -0.00036890334 0 0)
(2.6254546e-06 0.0038792153 0 -0.00036655033 0 0)
(3.4376574e-06 0.0027629223 0 -0.00018857805 0 0)
(-3.0816593e-07 0.0016498721 0 -6.6018768e-05 0 0)
(-4.6786983e-06 0.0005478065 0 -2.5784884e-06 0 0)
(-4.7907453e-06 -0.00054776748 0 -2.4661782e-06 0 0)
(-3.142548e-07 -0.0016498752 0 -6.6012785e-05 0 0)
(3.431397e-06 -0.0027629185 0 -0.0001885716 0 0)
(2.6223513e-06 -0.0038791982 0 -0.00036654564 0 0)
(1.2976354e-06 0.0038789212 0 -0.00036520814 0 0)
(1.9528966e-06 0.0027644909 0 -0.00018725784 0 0)
(-3.1111131e-08 0.0016521634 0 -6.6440191e-05 0 0)
(-2.5959341e-06 0.00054895907 0 -4.7210566e-06 0 0)
(-2.4914518e-06 -0.00054902744 0 -4.8262384e-06 0 0)
(-3.5316507e-08 -0.0016521738 0 -6.6436459e-05 0 0)
(1.9490415e-06 -0.0027644848 0 -0.00018725345 0 0)
(1.2958916e-06 -0.0038789055 0 -0.00036520518 0 0)
(5.5970226e-07 0.0038787824 0 -0.00036447411 0 0)
(1.0589385e-06 0.0027653848 0 -0.0001864552 0 0)
(9.0882197e-08 0.0016535406 0 -6.6646791e-05 0 0)
(-1.2338923e-06 0.00054972747 0 -6.1197342e-06 0 0)
(-1.3636027e-06 -0.0005496765 0 -5.9893019e-06 0 0)
(8.5646988e-08 -0.0016535442 0 -6.6641753e-05 0 0)
(1.0530031e-06 -0.0027653818 0 -0.00018644907 0 0)
(5.5657319e-07 -0.0038787673 0 -0.0003644697 0 0)
(1.6250481e-07 0.0038787276 0 -0.00036408703 0 0)
(5.2797954e-07 0.0027658801 0 -0.00018597238 0 0)
(1.2998497e-07 0.0016543348 0 -6.6733824e-05 0 0)
(-6.1475553e-07 0.00055009965 0 -6.7588598e-06 0 0)
(-4.4823685e-07 -0.00055020487 0 -6.9268892e-06 0 0)
(1.260085e-07 -0.001654344 0 -6.6730261e-05 0 0)
(5.2443258e-07 -0.0027658752 0 -0.00018596847 0 0)
(1.6044759e-07 -0.0038787136 0 -0.00036408389 0 0)
(-2.2740156e-08 0.0038787226 0 -0.00036391396 0 0)
(2.328066e-07 0.0027661283 0 -0.0001857014 0 0)
(1.3022358e-07 0.0016547847 0 -6.6759484e-05 0 0)
(-6.874515e-08 0.00055042766 0 -7.3175448e-06 0 0)
(-1.6898405e-07 -0.00055038576 0 -7.2169235e-06 0 0)
(1.2605868e-07 -0.0016547888 0 -6.6755575e-05 0 0)
(2.2779436e-07 -0.0027661253 0 -0.00018569619 0 0)
(-2.5254964e-08 -0.0038787095 0 -0.00036391042 0 0)
(-1.078555e-07 0.0038787405 0 -0.00036383995 0 0)
(6.6797123e-08 0.0027662492 0 -0.0001855455 0 0)
(1.132588e-07 0.0016550153 0 -6.6755353e-05 0 0)
(-2.0029949e-08 0.00055047418 0 -7.3710516e-06 0 0)
(-2.6565535e-08 -0.0005504831 0 -7.3644563e-06 0 0)
(1.0954459e-07 -0.0016550226 0 -6.6751964e-05 0 0)
(6.348896e-08 -0.0027662452 0 -0.00018554195 0 0)
(-1.0997119e-07 -0.0038787281 0 -0.00036383691 0 0)
(-1.2895419e-07 0.0038787616 0 -0.00036382827 0 0)
(-1.1555808e-08 0.0027662949 0 -0.0001854705 0 0)
(9.1859742e-08 0.0016551321 0 -6.6739096e-05 0 0)
(7.4174832e-08 0.00055053809 0 -7.468273e-06 0 0)
(8.7773306e-08 -0.00055055951 0 -7.4822802e-06 0 0)
(8.8424999e-08 -0.0016551368 0 -6.6735918e-05 0 0)
(-1.554145e-08 -0.0027662918 0 -0.00018546632 0 0)
(-1.3100603e-07 -0.0038787498 0 -0.00036382541 0 0)
(-1.2181367e-07 0.0038787861 0 -0.00036384302 0 0)
(-5.7631916e-08 0.0027663092 0 -0.00018542335 0 0)
(7.2364739e-08 0.0016551761 0 -6.6721199e-05 0 0)
(1.2042767e-07 0.00055057869 0 -7.5158955e-06 0 0)
(1.0584926e-07 -0.00055057906 0 -7.5013944e-06 0 0)
(6.8787451e-08 -0.0016551818 0 -6.6717876e-05 0 0)
(-6.0786587e-08 -0.002766306 0 -0.00018542001 0 0)
(-1.2394769e-07 -0.0038787747 0 -0.00036384008 0 0)
(-1.0436099e-07 0.0038788047 0 -0.00036386626 0 0)
(-5.8609503e-08 0.0027663001 0 -0.00018542106 0 0)
(5.2364924e-08 0.0016551896 0 -6.6700331e-05 0 0)
(1.1217785e-07 0.00055057591 0 -7.5078451e-06 0 0)
(1.1435372e-07 -0.00055058863 0 -7.5101983e-06 0 0)
(4.9107126e-08 -0.0016551943 0 -6.6697316e-05 0 0)
(-6.2777873e-08 -0.0027662967 0 -0.00018541662 0 0)
(-1.0611746e-07 -0.0038787942 0 -0.00036386386 0 0)
(-8.3745668e-08 0.0038788211 0 -0.00036389052 0 0)
(-5.9805735e-08 0.0027662797 0 -0.00018541847 0 0)
(3.9202606e-08 0.0016551788 0 -6.6686042e-05 0 0)
(1.0028703e-07 0.00055057874 0 -7.4958578e-06 0 0)
(1.0073436e-07 -0.00055058784 0 -7.496483e-06 0 0)
(3.5686975e-08 -0.0016551831 0 -6.6682699e-05 0 0)
(-6.3088112e-08 -0.0027662769 0 -0.00018541505 0 0)
(-8.5332848e-08 -0.0038788114 0 -0.00036388828 0 0)
(-6.5483892e-08 0.0038788337 0 -0.00036391211 0 0)
(-4.9679302e-08 0.0027662644 0 -0.00018542615 0 0)
(2.866563e-08 0.0016551627 0 -6.6674136e-05 0 0)
(9.201583e-08 0.00055057269 0 -7.4873275e-06 0 0)
(8.9003715e-08 -0.00055058187 0 -7.4843982e-06 0 0)
(2.516085e-08 -0.0016551665 0 -6.6670815e-05 0 0)
(-5.3346075e-08 -0.002766262 0 -0.00018542226 0 0)
(-6.7318678e-08 -0.0038788242 0 -0.00036390971 0 0)
(-5.2253363e-08 0.0038788431 0 -0.00036392702 0 0)
(-4.4163945e-08 0.0027662536 0 -0.00018543037 0 0)
(1.7968921e-08 0.0016551414 0 -6.6661994e-05 0 0)
(6.882675e-08 0.00055056558 0 -7.4637311e-06 0 0)
(6.9512282e-08 -0.00055057427 0 -7.464559e-06 0 0)
(1.5193621e-08 -0.0016551463 0 -6.6659382e-05 0 0)
(-4.7435455e-08 -0.0027662509 0 -0.00018542697 0 0)
(-5.3850085e-08 -0.0038788346 0 -0.00036392488 0 0)
(-3.8376334e-08 0.0038788517 0 -0.00036394275 0 0)
(-3.3900834e-08 0.0027662394 0 -0.00018543901 0 0)
(1.4680762e-08 0.0016551265 0 -6.6657823e-05 0 0)
(6.6691391e-08 0.00055056194 0 -7.4613632e-06 0 0)
(6.1460385e-08 -0.00055056839 0 -7.4561814e-06 0 0)
(1.1301915e-08 -0.0016551296 0 -6.6654597e-05 0 0)
(-3.7418565e-08 -0.002766237 0 -0.00018543529 0 0)
(-4.011916e-08 -0.0038788435 0 -0.00036394053 0 0)
(-3.0678341e-08 0.0038788577 0 -0.00036395111 0 0)
(-2.9603186e-08 0.0027662318 0 -0.00018544256 0 0)
(1.0552223e-08 0.0016551122 0 -6.6652655e-05 0 0)
(4.6867532e-08 0.00055055322 0 -7.4411806e-06 0 0)
(4.5352538e-08 -0.00055056047 0 -7.4397708e-06 0 0)
(7.2885408e-09 -0.0016551157 0 -6.6649514e-05 0 0)
(-3.2841485e-08 -0.0027662296 0 -0.00018543919 0 0)
(-3.2252038e-08 -0.0038788504 0 -0.00036394908 0 0)
(-2.2794108e-08 0.003878863 0 -0.00036396003 0 0)
(-2.2113155e-08 0.0027662223 0 -0.00018544908 0 0)
(9.5535849e-09 0.0016551021 0 -6.6650999e-05 0 0)
(4.0544806e-08 0.00055054922 0 -7.4346577e-06 0 0)
(3.9551961e-08 -0.00055055574 0 -7.4337534e-06 0 0)
(6.4310503e-09 -0.001655105 0 -6.6647994e-05 0 0)
(-2.5462918e-08 -0.0027662203 0 -0.00018544555 0 0)
(-2.4467567e-08 -0.003878856 0 -0.00036395796 0 0)
(-1.821475e-08 0.0038788671 0 -0.00036396477 0 0)
(-1.9429144e-08 0.0027662174 0 -0.00018545151 0 0)
(6.8194188e-09 0.0016550913 0 -6.6647679e-05 0 0)
(3.0541581e-08 0.00055054306 0 -7.4244674e-06 0 0)
(2.9095205e-08 -0.00055054914 0 -7.4230984e-06 0 0)
(3.7266455e-09 -0.0016550943 0 -6.6644686e-05 0 0)
(-2.2516837e-08 -0.0027662156 0 -0.00018544829 0 0)
(-1.9728436e-08 -0.0038788609 0 -0.00036396288 0 0)
(-1.4657065e-08 0.0038788705 0 -0.000363969 0 0)
(-1.5079555e-08 0.0027662117 0 -0.00018545524 0 0)
(6.0563036e-09 0.0016550838 0 -6.6646569e-05 0 0)
(2.6282249e-08 0.00055054011 0 -7.4200875e-06 0 0)
(2.5583355e-08 -0.00055054573 0 -7.4194744e-06 0 0)
(3.2282035e-09 -0.0016550864 0 -6.6643824e-05 0 0)
(-1.8156063e-08 -0.0027662102 0 -0.00018545201 0 0)
(-1.6219875e-08 -0.0038788647 0 -0.00036396711 0 0)
(-1.1760236e-08 0.0038788735 0 -0.00036397181 0 0)
(-1.3351462e-08 0.0027662083 0 -0.00018545698 0 0)
(4.8955382e-09 0.0016550765 0 -6.664506e-05 0 0)
(2.1541324e-08 0.00055053643 0 -7.4152682e-06 0 0)
(2.0014391e-08 -0.00055054111 0 -7.4137948e-06 0 0)
(2.1336561e-09 -0.0016550792 0 -6.6642383e-05 0 0)
(-1.619743e-08 -0.002766207 0 -0.00018545401 0 0)
(-1.3192107e-08 -0.0038788684 0 -0.00036397007 0 0)
(-1.0533211e-08 0.0038788761 0 -0.00036397356 0 0)
(-1.1196235e-08 0.0027662051 0 -0.00018545869 0 0)
(4.2775691e-09 0.0016550713 0 -6.6644283e-05 0 0)
(1.9651847e-08 0.00055053461 0 -7.4133132e-06 0 0)
(1.9137249e-08 -0.00055053984 0 -7.412876e-06 0 0)
(1.782573e-09 -0.0016550737 0 -6.6641851e-05 0 0)
(-1.3912634e-08 -0.0027662039 0 -0.00018545584 0 0)
(-1.194954e-08 -0.0038788714 0 -0.00036397187 0 0)
(-8.7674172e-09 0.0038788784 0 -0.00036397513 0 0)
(-1.0202296e-08 0.0027662027 0 -0.0001854598 0 0)
(3.8744976e-09 0.001655066 0 -6.6643649e-05 0 0)
(1.7504802e-08 0.00055053229 0 -7.4111408e-06 0 0)
(1.6569486e-08 -0.00055053683 0 -7.4102514e-06 0 0)
(1.5048156e-09 -0.0016550684 0 -6.6641351e-05 0 0)
(-1.2701482e-08 -0.0027662017 0 -0.0001854572 0 0)
(-1.0048203e-08 -0.0038788742 0 -0.00036397359 0 0)
(-8.461747e-09 0.0038788806 0 -0.00036397589 0 0)
(-9.1494521e-09 0.0027662006 0 -0.00018546051 0 0)
(3.4407786e-09 0.001655062 0 -6.6643139e-05 0 0)
(1.6492999e-08 0.00055053074 0 -7.4100872e-06 0 0)
(1.5957935e-08 -0.00055053518 0 -7.409617e-06 0 0)
(1.3221499e-09 -0.0016550641 0 -6.6641073e-05 0 0)
(-1.1450621e-08 -0.0027661997 0 -0.00018545809 0 0)
(-9.6869637e-09 -0.0038788768 0 -0.00036397446 0 0)
(-7.4074769e-09 0.0038788825 0 -0.0003639767 0 0)
(-8.7306282e-09 0.0027661989 0 -0.00018546109 0 0)
(3.2948615e-09 0.0016550583 0 -6.6642834e-05 0 0)
(1.5350791e-08 0.00055052892 0 -7.4089406e-06 0 0)
(1.4638222e-08 -0.00055053285 0 -7.4082659e-06 0 0)
(1.3477833e-09 -0.0016550604 0 -6.664095e-05 0 0)
(-1.081907e-08 -0.0027661981 0 -0.00018545891 0 0)
(-8.4897228e-09 -0.0038788792 0 -0.0003639754 0 0)
(-7.4154519e-09 0.0038788846 0 -0.00036397713 0 0)
(-8.1140022e-09 0.0027661974 0 -0.0001854614 0 0)
(2.9933281e-09 0.0016550547 0 -6.6642497e-05 0 0)
(1.4717827e-08 0.00055052758 0 -7.4082779e-06 0 0)
(1.4182574e-08 -0.00055053123 0 -7.4077969e-06 0 0)
(1.2759768e-09 -0.0016550565 0 -6.6640825e-05 0 0)
(-9.9816445e-09 -0.0027661967 0 -0.00018545945 0 0)
(-8.4229195e-09 -0.0038788816 0 -0.00036397595 0 0)
(-6.7123941e-09 0.0038788863 0 -0.00036397755 0 0)
(-8.0181644e-09 0.002766196 0 -0.00018546169 0 0)
(2.8922379e-09 0.001655052 0 -6.6642277e-05 0 0)
(1.4031945e-08 0.00055052602 0 -7.4075959e-06 0 0)
(1.3470105e-08 -0.00055052928 0 -7.4070654e-06 0 0)
(1.3610215e-09 -0.0016550538 0 -6.6640801e-05 0 0)
(-9.6852303e-09 -0.0027661955 0 -0.00018545995 0 0)
(-7.5835973e-09 -0.0038788837 0 -0.00036397651 0 0)
(-6.8472017e-09 0.0038788883 0 -0.00036397784 0 0)
(-7.5701174e-09 0.0027661948 0 -0.00018546186 0 0)
(2.6596182e-09 0.0016550487 0 -6.6642037e-05 0 0)
(1.357027e-08 0.00055052481 0 -7.4071109e-06 0 0)
(1.3103728e-08 -0.00055052781 0 -7.4066906e-06 0 0)
(1.3315103e-09 -0.0016550503 0 -6.664075e-05 0 0)
(-9.0209621e-09 -0.0027661943 0 -0.00018546034 0 0)
(-7.6386548e-09 -0.0038788859 0 -0.00036397692 0 0)
(-6.2975385e-09 0.0038788898 0 -0.00036397811 0 0)
(-7.614596e-09 0.0027661936 0 -0.00018546201 0 0)
(2.5742228e-09 0.0016550464 0 -6.6641849e-05 0 0)
(1.30975e-08 0.00055052338 0 -7.406645e-06 0 0)
(1.2673232e-08 -0.00055052607 0 -7.4062472e-06 0 0)
(1.4210128e-09 -0.0016550479 0 -6.6640746e-05 0 0)
(-8.8877422e-09 -0.0027661932 0 -0.00018546069 0 0)
(-6.9665281e-09 -0.0038788878 0 -0.0003639773 0 0)
(-6.4854514e-09 0.0038788918 0 -0.00036397834 0 0)
(-7.235256e-09 0.0027661926 0 -0.00018546213 0 0)
(2.3785118e-09 0.0016550435 0 -6.6641662e-05 0 0)
(1.2718925e-08 0.00055052226 0 -7.406247e-06 0 0)
(1.2350559e-08 -0.00055052474 0 -7.4059187e-06 0 0)
(1.3972815e-09 -0.0016550447 0 -6.6640719e-05 0 0)
(-8.313637e-09 -0.0027661921 0 -0.000185461 0 0)
(-7.0811218e-09 -0.0038788899 0 -0.00036397763 0 0)
(-5.9995966e-09 0.0038788933 0 -0.00036397853 0 0)
(-7.3290736e-09 0.0027661915 0 -0.00018546224 0 0)
(2.3099182e-09 0.0016550413 0 -6.66415e-05 0 0)
(1.234896e-08 0.0005505209 0 -7.4058851e-06 0 0)
(1.204545e-08 -0.00055052314 0 -7.4056042e-06 0 0)
(1.477995e-09 -0.0016550425 0 -6.6640715e-05 0 0)
(-8.2589531e-09 -0.0027661911 0 -0.00018546128 0 0)
(-6.4894149e-09 -0.0038788916 0 -0.00036397792 0 0)
(-6.206921e-09 0.0038788951 0 -0.00036397873 0 0)
(-6.9764357e-09 0.0027661905 0 -0.00018546235 0 0)
(2.139389e-09 0.0016550385 0 -6.6641346e-05 0 0)
(1.2015049e-08 0.00055051983 0 -7.4055345e-06 0 0)
(1.1744186e-08 -0.0005505219 0 -7.4052991e-06 0 0)
(1.4472632e-09 -0.0016550396 0 -6.664069e-05 0 0)
(-7.7432119e-09 -0.0027661901 0 -0.00018546154 0 0)
(-6.6365735e-09 -0.0038788936 0 -0.00036397821 0 0)
(-5.7470784e-09 0.0038788966 0 -0.0003639789 0 0)
(-7.0802572e-09 0.0027661895 0 -0.00018546244 0 0)
(2.0880673e-09 0.0016550365 0 -6.6641209e-05 0 0)
(1.1698e-08 0.00055051853 0 -7.4052261e-06 0 0)
(1.1493781e-08 -0.00055052043 0 -7.4050417e-06 0 0)
(1.5141595e-09 -0.0016550375 0 -6.6640679e-05 0 0)
(-7.729656e-09 -0.0027661892 0 -0.00018546177 0 0)
(-6.0885406e-09 -0.0038788952 0 -0.00036397846 0 0)
(-5.958711e-09 0.0038788984 0 -0.00036397909 0 0)
(-6.7353062e-09 0.0027661886 0 -0.00018546255 0 0)
(1.9382732e-09 0.0016550338 0 -6.6641078e-05 0 0)
(1.1391475e-08 0.0005505175 0 -7.4049054e-06 0 0)
(1.1203163e-08 -0.00055051926 0 -7.4047488e-06 0 0)
(1.4735485e-09 -0.0016550347 0 -6.6640648e-05 0 0)
(-7.2552515e-09 -0.0027661882 0 -0.00018546201 0 0)
(-6.2555902e-09 -0.003878897 0 -0.00036397872 0 0)
(-5.509512e-09 0.0038788998 0 -0.00036397925 0 0)
(-6.8339938e-09 0.0027661877 0 -0.00018546265 0 0)
(1.9031464e-09 0.0016550319 0 -6.6640964e-05 0 0)
(1.1104707e-08 0.00055051625 0 -7.4046278e-06 0 0)
(1.0977042e-08 -0.0005505179 0 -7.4045176e-06 0 0)
(1.5258725e-09 -0.0016550327 0 -6.6640629e-05 0 0)
(-7.2663207e-09 -0.0027661873 0 -0.00018546221 0 0)
(-5.735396e-09 -0.0038788985 0 -0.00036397894 0 0)
(-5.7191388e-09 0.0038789015 0 -0.00036397943 0 0)
(-6.4892296e-09 0.0027661868 0 -0.00018546277 0 0)
(1.7713024e-09 0.0016550294 0 -6.6640853e-05 0 0)
(1.081707e-08 0.00055051525 0 -7.4043282e-06 0 0)
(1.0691978e-08 -0.00055051678 0 -7.4042319e-06 0 0)
(1.4758763e-09 -0.0016550301 0 -6.6640591e-05 0 0)
(-6.8242782e-09 -0.0027661864 0 -0.00018546242 0 0)
(-5.9156665e-09 -0.0038789003 0 -0.00036397917 0 0)
(-5.2747247e-09 0.0038789029 0 -0.00036397958 0 0)
(-6.5779757e-09 0.002766186 0 -0.00018546287 0 0)
(1.75018e-09 0.0016550276 0 -6.664076e-05 0 0)
(1.0549838e-08 0.00055051406 0 -7.4040707e-06 0 0)
(1.04776e-08 -0.00055051552 0 -7.4040141e-06 0 0)
(1.5146092e-09 -0.0016550282 0 -6.6640564e-05 0 0)
(-6.8514547e-09 -0.0027661856 0 -0.0001854626 0 0)
(-5.4157231e-09 -0.0038789017 0 -0.00036397937 0 0)
(-5.4800868e-09 0.0038789045 0 -0.00036397977 0 0)
(-6.2315777e-09 0.0027661851 0 -0.000185463 0 0)
(1.6335254e-09 0.0016550251 0 -6.6640666e-05 0 0)
(1.0276263e-08 0.00055051308 0 -7.403787e-06 0 0)
(1.0195894e-08 -0.00055051444 0 -7.4037331e-06 0 0)
(1.4569477e-09 -0.0016550257 0 -6.664052e-05 0 0)
(-6.43658e-09 -0.0027661848 0 -0.00018546279 0 0)
(-5.60509e-09 -0.0038789034 0 -0.00036397959 0 0)
(-5.0386171e-09 0.0038789058 0 -0.00036397991 0 0)
(-6.3099127e-09 0.0027661843 0 -0.00018546312 0 0)
(1.6234369e-09 0.0016550234 0 -6.6640588e-05 0 0)
(1.0023013e-08 0.00055051195 0 -7.403544e-06 0 0)
(9.9882713e-09 -0.00055051329 0 -7.4035236e-06 0 0)
(1.4840795e-09 -0.001655024 0 -6.6640487e-05 0 0)
(-6.475148e-09 -0.0027661839 0 -0.00018546296 0 0)
(-5.121054e-09 -0.0038789047 0 -0.00036397977 0 0)
(-5.2393427e-09 0.0038789074 0 -0.00036398009 0 0)
(-5.9624971e-09 0.0027661835 0 -0.00018546325 0 0)
(1.5193193e-09 0.0016550211 0 -6.6640508e-05 0 0)
(9.7604249e-09 0.000550511 0 -7.4032732e-06 0 0)
(9.7092684e-09 -0.00055051225 0 -7.4032465e-06 0 0)
(1.4207254e-09 -0.0016550216 0 -6.6640439e-05 0 0)
(-6.080219e-09 -0.0027661831 0 -0.00018546313 0 0)
(-5.3166453e-09 -0.0038789064 0 -0.00036397997 0 0)
(-4.8006332e-09 0.0038789086 0 -0.00036398024 0 0)
(-6.0317216e-09 0.0027661827 0 -0.00018546337 0 0)
(1.517328e-09 0.0016550194 0 -6.6640444e-05 0 0)
(9.5180053e-09 0.00055050992 0 -7.4030415e-06 0 0)
(9.5065365e-09 -0.00055051119 0 -7.4030432e-06 0 0)
(1.4384298e-09 -0.00165502 0 -6.6640402e-05 0 0)
(-6.1274499e-09 -0.0027661823 0 -0.00018546329 0 0)
(-4.8455174e-09 -0.0038789076 0 -0.00036398014 0 0)
(-4.9972101e-09 0.0038789102 0 -0.00036398042 0 0)
(-5.6848407e-09 0.002766182 0 -0.00018546352 0 0)
(1.423283e-09 0.0016550172 0 -6.6640375e-05 0 0)
(9.264356e-09 0.000550509 0 -7.4027813e-06 0 0)
(9.2304378e-09 -0.00055051017 0 -7.4027702e-06 0 0)
(1.3713224e-09 -0.0016550177 0 -6.6640351e-05 0 0)
(-5.7491399e-09 -0.0027661816 0 -0.00018546345 0 0)
(-5.045402e-09 -0.0038789091 0 -0.00036398033 0 0)
(-4.5617211e-09 0.0038789113 0 -0.00036398056 0 0)
(-5.7469093e-09 0.0027661813 0 -0.00018546364 0 0)
(1.4268029e-09 0.0016550156 0 -6.6640321e-05 0 0)
(9.0308668e-09 0.00055050799 0 -7.4025588e-06 0 0)
(9.032027e-09 -0.0005505092 0 -7.4025722e-06 0 0)
(1.3817469e-09 -0.0016550161 0 -6.6640311e-05 0 0)
(-5.8024697e-09 -0.0027661809 0 -0.0001854636 0 0)
(-4.5849819e-09 -0.0038789103 0 -0.00036398049 0 0)
(-4.7549893e-09 0.0038789128 0 -0.00036398074 0 0)
(-5.4022764e-09 0.0027661806 0 -0.00018546379 0 0)
(1.3407099e-09 0.0016550135 0 -6.664026e-05 0 0)
(8.7848494e-09 0.0005505071 0 -7.4023078e-06 0 0)
(8.7595022e-09 -0.00055050821 0 -7.4023037e-06 0 0)
(1.3125734e-09 -0.001655014 0 -6.664026e-05 0 0)
(-5.4381291e-09 -0.0027661801 0 -0.00018546376 0 0)
(-4.7877199e-09 -0.0038789118 0 -0.00036398067 0 0)
(-4.32338e-09 0.0038789139 0 -0.00036398088 0 0)
(-5.4595129e-09 0.0027661798 0 -0.00018546392 0 0)
(1.3476593e-09 0.001655012 0 -6.6640214e-05 0 0)
(8.559151e-09 0.00055050614 0 -7.4020933e-06 0 0)
(8.5653963e-09 -0.00055050732 0 -7.402111e-06 0 0)
(1.3176336e-09 -0.0016550125 0 -6.6640218e-05 0 0)
(-5.49557e-09 -0.0027661794 0 -0.0001854639 0 0)
(-4.3364614e-09 -0.0038789129 0 -0.00036398082 0 0)
(-4.5142762e-09 0.0038789153 0 -0.00036398105 0 0)
(-5.1180311e-09 0.0027661792 0 -0.00018546407 0 0)
(1.2677994e-09 0.00165501 0 -6.6640161e-05 0 0)
(8.3200191e-09 0.00055050529 0 -7.4018504e-06 0 0)
(8.2973391e-09 -0.00055050637 0 -7.4018477e-06 0 0)
(1.2477643e-09 -0.0016550105 0 -6.6640166e-05 0 0)
(-5.1430748e-09 -0.0027661788 0 -0.00018546405 0 0)
(-4.5409401e-09 -0.0038789142 0 -0.000363981 0 0)
(-4.0872074e-09 0.0038789163 0 -0.00036398119 0 0)
(-5.1730408e-09 0.0027661785 0 -0.0001854642 0 0)
(1.2766221e-09 0.0016550086 0 -6.664012e-05 0 0)
(8.1014838e-09 0.00055050439 0 -7.4016432e-06 0 0)
(8.1077699e-09 -0.00055050555 0 -7.4016602e-06 0 0)
(1.2490579e-09 -0.0016550091 0 -6.6640125e-05 0 0)
(-5.2032683e-09 -0.0027661781 0 -0.00018546418 0 0)
(-4.0977844e-09 -0.0038789153 0 -0.00036398114 0 0)
(-4.2766399e-09 0.0038789177 0 -0.00036398136 0 0)
(-4.8348077e-09 0.0027661779 0 -0.00018546435 0 0)
(1.2016709e-09 0.0016550067 0 -6.6640072e-05 0 0)
(7.868908e-09 0.00055050357 0 -7.401408e-06 0 0)
(7.8451399e-09 -0.00055050462 0 -7.4014029e-06 0 0)
(1.1795485e-09 -0.0016550071 0 -6.6640074e-05 0 0)
(-4.8610628e-09 -0.0027661774 0 -0.00018546433 0 0)
(-4.303346e-09 -0.0038789166 0 -0.00036398131 0 0)
(-3.8546921e-09 0.0038789186 0 -0.00036398149 0 0)
(-4.8888226e-09 0.0027661772 0 -0.00018546448 0 0)
(1.2112829e-09 0.0016550054 0 -6.6640035e-05 0 0)
(7.657263e-09 0.00055050273 0 -7.4012075e-06 0 0)
(7.6604529e-09 -0.00055050388 0 -7.4012207e-06 0 0)
(1.1783463e-09 -0.0016550058 0 -6.6640033e-05 0 0)
(-4.9231724e-09 -0.0027661768 0 -0.00018546446 0 0)
(-3.8675627e-09 -0.0038789176 0 -0.00036398144 0 0)
(-4.0434876e-09 0.0038789199 0 -0.00036398165 0 0)
(-4.5563325e-09 0.0027661766 0 -0.00018546462 0 0)
(1.1402633e-09 0.0016550036 0 -6.6639991e-05 0 0)
(7.4312105e-09 0.00055050195 0 -7.4009798e-06 0 0)
(7.4041778e-09 -0.00055050298 0 -7.4009702e-06 0 0)
(1.1099717e-09 -0.001655004 0 -6.6639984e-05 0 0)
(-4.5901711e-09 -0.0027661762 0 -0.0001854646 0 0)
(-4.0738903e-09 -0.0038789188 0 -0.0003639816 0 0)
(-3.6271353e-09 0.0038789208 0 -0.00036398178 0 0)
(-4.6097472e-09 0.002766176 0 -0.00018546475 0 0)
(1.1499658e-09 0.0016550023 0 -6.6639958e-05 0 0)
(7.2264188e-09 0.00055050117 0 -7.4007859e-06 0 0)
(7.2247592e-09 -0.00055050229 0 -7.4007936e-06 0 0)
(1.107249e-09 -0.0016550028 0 -6.6639944e-05 0 0)
(-4.6537566e-09 -0.0027661756 0 -0.00018546472 0 0)
(-3.645005e-09 -0.0038789198 0 -0.00036398173 0 0)
(-3.8160161e-09 0.003878922 0 -0.00036398194 0 0)
(-4.2844041e-09 0.0027661755 0 -0.0001854649 0 0)
(1.082181e-09 0.0016550006 0 -6.6639917e-05 0 0)
(7.0070511e-09 0.00055050042 0 -7.4005656e-06 0 0)
(6.9756869e-09 -0.00055050144 0 -7.4005506e-06 0 0)
(1.0405523e-09 -0.001655001 0 -6.6639897e-05 0 0)
(-4.3292361e-09 -0.002766175 0 -0.00018546486 0 0)
(-3.8520208e-09 -0.0038789209 0 -0.00036398189 0 0)
(-3.4056206e-09 0.0038789228 0 -0.00036398206 0 0)
(-4.338093e-09 0.0027661749 0 -0.00018546502 0 0)
(1.0915656e-09 0.0016549995 0 -6.6639887e-05 0 0)
(6.8092189e-09 0.00055049969 0 -7.4003783e-06 0 0)
(6.8019171e-09 -0.0005505008 0 -7.4003798e-06 0 0)
(1.0370384e-09 -0.0016549999 0 -6.6639859e-05 0 0)
(-4.3941419e-09 -0.0027661745 0 -0.00018546498 0 0)
(-3.4297461e-09 -0.0038789218 0 -0.00036398201 0 0)
(-3.5952036e-09 0.003878924 0 -0.00036398222 0 0)
(-4.0203618e-09 0.0027661744 0 -0.00018546516 0 0)
(1.0265328e-09 0.0016549978 0 -6.6639849e-05 0 0)
(6.5968073e-09 0.00055049898 0 -7.4001657e-06 0 0)
(6.56079e-09 -0.00055049998 0 -7.4001449e-06 0 0)
(9.7238167e-10 -0.0016549982 0 -6.6639814e-05 0 0)
(-4.0776379e-09 -0.002766174 0 -0.00018546511 0 0)
(-3.6375324e-09 -0.0038789229 0 -0.00036398216 0 0)
(-3.1910248e-09 0.0038789248 0 -0.00036398233 0 0)
(-4.0751676e-09 0.0027661738 0 -0.00018546529 0 0)
(1.0353973e-09 0.0016549967 0 -6.663982e-05 0 0)
(6.4061128e-09 0.00055049829 0 -7.399985e-06 0 0)
(6.3930137e-09 -0.00055049938 0 -7.39998e-06 0 0)
(9.6861232e-10 -0.0016549972 0 -6.6639778e-05 0 0)
(-4.1438985e-09 -0.0027661734 0 -0.00018546523 0 0)
(-3.2217053e-09 -0.0038789237 0 -0.00036398228 0 0)
(-3.38183e-09 0.0038789258 0 -0.00036398248 0 0)
(-3.7653196e-09 0.0027661733 0 -0.00018546542 0 0)
(9.7279047e-10 0.0016549952 0 -6.6639784e-05 0 0)
(6.2009737e-09 0.00055049763 0 -7.3997802e-06 0 0)
(6.16046e-09 -0.00055049861 0 -7.3997539e-06 0 0)
(9.0622218e-10 -0.0016549956 0 -6.6639735e-05 0 0)
(-3.8351189e-09 -0.0027661729 0 -0.00018546536 0 0)
(-3.4304417e-09 -0.0038789248 0 -0.00036398242 0 0)
(-2.984038e-09 0.0038789265 0 -0.00036398259 0 0)
(-3.8219241e-09 0.0027661728 0 -0.00018546554 0 0)
(9.8107145e-10 0.0016549942 0 -6.6639757e-05 0 0)
(6.0176142e-09 0.00055049699 0 -7.3996063e-06 0 0)
(5.9989663e-09 -0.00055049805 0 -7.3995951e-06 0 0)
(9.0258619e-10 -0.0016549946 0 -6.6639702e-05 0 0)