/*--------------------------------*- C++ -*----------------------------------*\
| =========                 |                                                 |
| \\      /  F ield         | OpenFOAM: The Open Source CFD Toolbox           |
|  \\    /   O peration     | Version:  5.x                                   |
|   \\  /    A nd           | Web:      www.OpenFOAM.org                      |
|    \\/     M anipulation  |                                                 |
\*---------------------------------------------------------------------------*/
FoamFile
{
    version     2.0;
    format      ascii;
    class       volSymmTensorField;
    location    "3";
    object      sigma;
}
// * * * * * * * * * * * * * * * * * * * * * * * * * * * * * * * * * * * * * //

dimensions      [0 2 -2 0 0 0 0];

internalField   nonuniform List<symmTensor> 
1920
(
(0.0014159759 0.0097559471 0 -0.0063477302 0 0)
(-0.0003266427 0.0033956352 0 0.0012204273 0 0)
(-0.0010315795 0.0024226422 0 0.00074646522 0 0)
(-0.0005649999 0.00079881438 0 0.00059674227 0 0)
(-0.00056497251 -0.00079882387 0 0.00059671435 0 0)
(-0.0010315948 -0.0024226054 0 0.00074648118 0 0)
(-0.00032664416 -0.0033956194 0 0.0012204295 0 0)
(0.0014159748 -0.0097559472 0 -0.0063477275 0 0)
(0.0035765084 0.0063575635 0 -0.0028565195 0 0)
(0.00028739888 0.0012306051 0 0.00049939769 0 0)
(-0.0022213147 0.00026221434 0 0.0018478244 0 0)
(-0.0021851743 0.00018116112 0 0.0019787384 0 0)
(-0.0021851699 -0.00018115961 0 0.0019787314 0 0)
(-0.0022213259 -0.00026215893 0 0.0018478374 0 0)
(0.00028740094 -0.0012306145 0 0.00049939185 0 0)
(0.0035765081 -0.0063575659 0 -0.0028565194 0 0)
(0.0028991856 0.0055027726 0 -0.0038312321 0 0)
(0.00079684161 0.00054399264 0 -0.00046993339 0 0)
(-0.0017393634 0.00012861236 0 0.0015354541 0 0)
(-0.0021070858 4.2360579e-05 0 0.0020019862 0 0)
(-0.0021071002 -4.2363263e-05 0 0.0020020044 0 0)
(-0.0017393603 -0.00012871504 0 0.0015354458 0 0)
(0.00079684497 -0.00054400223 0 -0.00046993411 0 0)
(0.0028991862 -0.0055027715 0 -0.0038312342 0 0)
(0.0022334072 0.0051500131 0 -0.0031882397 0 0)
(0.00086624839 0.00098149478 0 -0.00074045795 0 0)
(-0.0012171401 0.00015564435 0 0.0011402494 0 0)
(-0.0018822426 -3.8218457e-06 0 0.0018621547 0 0)
(-0.0018822306 3.812777e-06 0 0.0018621423 0 0)
(-0.0012171707 -0.00015562146 0 0.0011402803 0 0)
(0.00086625264 -0.00098148962 0 -0.0007404625 0 0)
(0.0022334078 -0.0051500117 0 -0.0031882398 0 0)
(0.0016765654 0.0049291015 0 -0.0023592988 0 0)
(0.00076476596 0.00140784 0 -0.00073783028 0 0)
(-0.00079128388 0.00049739629 0 0.00073782273 0 0)
(-0.0016301781 5.5948827e-05 0 0.0016110867 0 0)
(-0.0016302254 -5.5955312e-05 0 0.0016111363 0 0)
(-0.00079123065 -0.00049740801 0 0.00073777264 0 0)
(0.00076477812 -0.0014078509 0 -0.00073784314 0 0)
(0.0016765768 -0.0049291026 0 -0.0023593112 0 0)
(0.0011837156 0.004732142 0 -0.0017134119 0 0)
(0.00063267803 0.001823585 0 -0.00066959829 0 0)
(-0.00072962615 0.00057853508 0 0.00068354411 0 0)
(-0.0011293199 0.00016987076 0 0.0011154828 0 0)
(-0.0011293054 -0.00016988209 0 0.0011154651 0 0)
(-0.00072956762 -0.00057859885 0 0.00068348898 0 0)
(0.00063269376 -0.0018235733 0 -0.00066961368 0 0)
(0.0011837142 -0.0047321362 0 -0.0017134091 0 0)
(0.00086166688 0.0046014836 0 -0.0013265613 0 0)
(0.00047232991 0.0022548597 0 -0.00055993138 0 0)
(-0.00038434402 0.00097897815 0 0.00034361952 0 0)
(-0.00088414332 0.00025337519 0 0.00087748906 0 0)
(-0.00088410686 -0.0002533933 0 0.00087745377 0 0)
(-0.00038432767 -0.00097897766 0 0.00034360203 0 0)
(0.00047234575 -0.0022548508 0 -0.00055994622 0 0)
(0.0008616729 -0.0046014751 0 -0.0013265674 0 0)
(0.00059168583 0.004496402 0 -0.0010194872 0 0)
(0.00037651887 0.002448968 0 -0.00049307897 0 0)
(-0.00025350597 0.0012017069 0 0.00021173766 0 0)
(-0.00066405724 0.00033165467 0 0.00066169323 0 0)
(-0.00066408739 -0.00033165097 0 0.00066172216 0 0)
(-0.00025351377 -0.0012016779 0 0.00021174582 0 0)
(0.00037652386 -0.0024489777 0 -0.00049308533 0 0)
(0.00059168963 -0.0044963932 0 -0.0010194901 0 0)
(0.00041306631 0.0044304015 0 -0.00081782595 0 0)
(0.00026543497 0.0026622233 0 -0.00040558259 0 0)
(-0.00016787358 0.0013699897 0 0.0001215459 0 0)
(-0.00048103318 0.0004012239 0 0.00047958339 0 0)
(-0.00048099177 -0.00040124593 0 0.00047954382 0 0)
(-0.00016784558 -0.0013700161 0 0.00012151752 0 0)
(0.0002654579 -0.0026622024 0 -0.00040560545 0 0)
(0.00041307469 -0.0044303888 0 -0.00081783367 0 0)
(0.00027875332 0.0043831793 0 -0.0006693381 0 0)
(0.00019323066 0.0027857194 0 -0.0003494889 0 0)
(-0.00010755289 0.0015053014 0 5.6126709e-05 0 0)
(-0.00033193254 0.0004613804 0 0.0003298843 0 0)
(-0.00033195919 -0.00046137519 0 0.00032990962 0 0)
(-0.00010755313 -0.0015052811 0 5.6127626e-05 0 0)
(0.00019323439 -0.0027857218 0 -0.00034949284 0 0)
(0.00027875708 -0.004383165 0 -0.00066934077 0 0)
(0.00018304306 0.0043511553 0 -0.00056520768 0 0)
(0.00013800754 0.0028747382 0 -0.00030557563 0 0)
(-6.7007078e-05 0.0016082678 0 1.1063797e-05 0 0)
(-0.0002252621 0.00050661518 0 0.00022209404 0 0)
(-0.00022525778 -0.00050662674 0 0.00022209036 0 0)
(-6.6990464e-05 -0.0016082877 0 1.1046349e-05 0 0)
(0.00013802069 -0.0028747224 0 -0.00030558841 0 0)
(0.00018305065 -0.0043511384 0 -0.00056521384 0 0)
(0.00011784234 0.004330148 0 -0.0004950934 0 0)
(9.5069054e-05 0.0029403888 0 -0.00027041327 0 0)
(-4.0874284e-05 0.0016827554 0 -1.8681708e-05 0 0)
(-0.00015070402 0.00053966617 0 0.00014641588 0 0)
(-0.00015063084 -0.00053970227 0 0.00014634184 0 0)
(-4.0874612e-05 -0.0016827432 0 -1.868098e-05 0 0)
(9.5072667e-05 -0.0029403816 0 -0.00027041682 0 0)
(0.00011784531 -0.0043301301 0 -0.00049509516 0 0)
(7.479284e-05 0.0043167186 0 -0.00044920767 0 0)
(6.3944915e-05 0.0029854908 0 -0.00024442333 0 0)
(-2.4450859e-05 0.0017349599 0 -3.7829897e-05 0 0)
(-9.8999646e-05 0.00056337412 0 9.3755153e-05 0 0)
(-9.9180473e-05 -0.00056330797 0 9.3936837e-05 0 0)
(-2.4445818e-05 -0.0017349709 0 -3.7835634e-05 0 0)
(6.3950283e-05 -0.0029854773 0 -0.00024442821 0 0)
(7.4795589e-05 -0.0043166987 0 -0.00044920848 0 0)
(4.6627327e-05 0.0043081863 0 -0.00041941643 0 0)
(4.2184768e-05 0.0030154763 0 -0.00022599321 0 0)
(-1.4250327e-05 0.0017709056 0 -4.9983005e-05 0 0)
(-6.4498389e-05 0.00057973366 0 5.8517668e-05 0 0)
(-6.4208074e-05 -0.00057986971 0 5.8225695e-05 0 0)
(-1.4252251e-05 -0.0017709037 0 -4.9980928e-05 0 0)
(4.2184163e-05 -0.0030154678 0 -0.00022599218 0 0)
(4.6629865e-05 -0.0043081674 0 -0.00041941759 0 0)
(2.8484537e-05 0.0043028537 0 -0.00040036566 0 0)
(2.7294867e-05 0.0030350852 0 -0.00021321725 0 0)
(-8.0573873e-06 0.0017951469 0 -5.7529497e-05 0 0)
(-4.0841461e-05 0.00059121725 0 3.4325148e-05 0 0)
(-4.1240694e-05 -0.00059105527 0 3.4725845e-05 0 0)
(-8.0599899e-06 -0.0017951523 0 -5.7527387e-05 0 0)
(2.7293499e-05 -0.0030350756 0 -0.00021321539 0 0)
(2.8484225e-05 -0.0043028337 0 -0.00040036331 0 0)
(1.7003176e-05 0.0042995864 0 -0.00038839234 0 0)
(1.7323916e-05 0.0030476506 0 -0.00020456879 0 0)
(-4.3579206e-06 0.0018112547 0 -6.213681e-05 0 0)
(-2.5488628e-05 0.00059887561 0 1.8600722e-05 0 0)
(-2.4998007e-05 -0.00059910945 0 1.8107999e-05 0 0)
(-4.3616593e-06 -0.0018112602 0 -6.2133149e-05 0 0)
(1.7320818e-05 -0.0030476419 0 -0.00020456509 0 0)
(1.7003245e-05 -0.0042995678 0 -0.00038839093 0 0)
(9.8640003e-06 0.0042976329 0 -0.00038100169 0 0)
(1.0763132e-05 0.0030555813 0 -0.00019881853 0 0)
(-2.217635e-06 0.0018217403 0 -6.4870434e-05 0 0)
(-1.5588957e-05 0.00060393372 0 8.4522977e-06 0 0)
(-1.5900727e-05 -0.00060380607 0 8.7652861e-06 0 0)
(-2.2237053e-06 -0.0018217435 0 -6.4864731e-05 0 0)
(1.0757693e-05 -0.0030555753 0 -0.00019881265 0 0)
(9.8616176e-06 -0.0042976143 0 -0.00038099743 0 0)
(5.5165361e-06 0.0042964995 0 -0.00037653587 0 0)
(6.5300162e-06 0.0030604817 0 -0.00019507206 0 0)
(-1.013792e-06 0.0018284619 0 -6.6453005e-05 0 0)
(-9.4364376e-06 0.00060715531 0 2.1380678e-06 0 0)
(-9.3310054e-06 -0.00060722262 0 2.031523e-06 0 0)
(-1.0184784e-06 -0.0018284711 0 -6.6448554e-05 0 0)
(6.5257298e-06 -0.0030604744 0 -0.0001950672 0 0)
(5.5150603e-06 -0.0042964825 0 -0.00037653295 0 0)
(2.9340538e-06 0.0042958711 0 -0.00037390694 0 0)
(3.8499147e-06 0.003063451 0 -0.00019267892 0 0)
(-3.6907106e-07 0.0018326816 0 -6.7331944e-05 0 0)
(-5.326017e-06 0.00060934479 0 -2.0772508e-06 0 0)
(-5.4359002e-06 -0.00060930634 0 -1.9668569e-06 0 0)
(-3.7568512e-07 -0.0018326845 0 -6.7325649e-05 0 0)
(3.8431284e-06 -0.0030634473 0 -0.00019267175 0 0)
(2.9307265e-06 -0.0042958548 0 -0.00037390202 0 0)
(1.4454473e-06 0.0042955427 0 -0.00037240861 0 0)
(2.1859013e-06 0.0030652074 0 -0.00019117728 0 0)
(-4.6913475e-08 0.001835274 0 -6.7796774e-05 0 0)
(-2.9513207e-06 0.00061064815 0 -4.515692e-06 0 0)
(-2.8495816e-06 -0.00061071442 0 -4.6183239e-06 0 0)
(-5.1681274e-08 -0.0018352839 0 -6.7792317e-05 0 0)
(2.1814698e-06 -0.0030652016 0 -0.00019117239 0 0)
(1.4434443e-06 -0.0042955278 0 -0.00037240529 0 0)
(6.1729185e-07 0.0042953885 0 -0.0003715869 0 0)
(1.1815456e-06 0.00306621 0 -0.00019026418 0 0)
(9.7595289e-08 0.0018368334 0 -6.802344e-05 0 0)
(-1.4180843e-06 0.00061150745 0 -6.0884601e-06 0 0)
(-1.5448003e-06 -0.00061145744 0 -5.960887e-06 0 0)
(9.1842553e-08 -0.0018368367 0 -6.8017997e-05 0 0)
(1.1750898e-06 -0.0030662073 0 -0.0001902574 0 0)
(6.1391424e-07 -0.0042953744 0 -0.00037158223 0 0)
(1.7250338e-07 0.0042953292 0 -0.00037115534 0 0)
(5.8753639e-07 0.0030667653 0 -0.00018971629 0 0)
(1.4505228e-07 0.0018377343 0 -6.8118238e-05 0 0)
(-6.9585642e-07 0.00061193664 0 -6.8318124e-06 0 0)
(-5.3273226e-07 -0.00061203913 0 -6.9965771e-06 0 0)
(1.4056434e-07 -0.001837743 0 -6.8114065e-05 0 0)
(5.8345504e-07 -0.0030667608 0 -0.00018971187 0 0)
(1.7019723e-07 -0.0042953162 0 -0.00037115189 0 0)
(-3.3996433e-08 0.0042953248 0 -0.00037096218 0 0)
(2.556201e-07 0.003067045 0 -0.00018940885 0 0)
(1.4768849e-07 0.0018382436 0 -6.8144776e-05 0 0)
(-9.9005543e-08 0.00061229459 0 -7.4423821e-06 0 0)
(-1.9853307e-07 -0.00061225229 0 -7.3423631e-06 0 0)
(1.4305339e-07 -0.0018382474 0 -6.814045e-05 0 0)
(2.5013251e-07 -0.0030670424 0 -0.00018940309 0 0)
(-3.6736976e-08 -0.0042953128 0 -0.0003709584 0 0)
(-1.2759497e-07 0.0042953457 0 -0.00037088157 0 0)
(7.2002808e-08 0.0030671802 0 -0.00018923384 0 0)
(1.2882148e-07 0.0018385057 0 -6.8138677e-05 0 0)
(-2.0976391e-08 0.00061235973 0 -7.5253072e-06 0 0)
(-2.702371e-08 -0.0006123681 0 -7.5192692e-06 0 0)
(1.2469127e-07 -0.0018385126 0 -6.8134813e-05 0 0)
(6.8259462e-08 -0.0030671767 0 -0.00018922985 0 0)
(-1.2992091e-07 -0.0042953345 0 -0.00037087828 0 0)
(-1.4887344e-07 0.0042953701 0 -0.00037086999 0 0)
(-1.5613999e-08 0.0030672312 0 -0.00018915015 0 0)
(1.0513086e-07 0.0018386373 0 -6.8119146e-05 0 0)
(8.5321867e-08 0.00061243319 0 -7.6349856e-06 0 0)
(9.8378992e-08 -0.00061245333 0 -7.6484008e-06 0 0)
(1.0133717e-07 -0.0018386416 0 -6.8115634e-05 0 0)
(-1.9965916e-08 -0.0030672286 0 -0.00018914556 0 0)
(-1.5109245e-07 -0.0042953597 0 -0.00037086694 0 0)
(-1.3969081e-07 0.0042953978 0 -0.00037088791 0 0)
(-6.3735546e-08 0.003067246 0 -0.00018909988 0 0)
(8.2260789e-08 0.0018386871 0 -6.809806e-05 0 0)
(1.3448607e-07 0.00061247756 0 -7.6853578e-06 0 0)
(1.2002655e-07 -0.00061247712 0 -7.6710084e-06 0 0)
(7.8414397e-08 -0.0018386923 0 -6.8094429e-05 0 0)
(-6.7175249e-08 -0.0030672433 0 -0.00018909624 0 0)
(-1.4195484e-07 -0.0042953878 0 -0.00037088481 0 0)
(-1.1797595e-07 0.0042954189 0 -0.00037091522 0 0)
(-6.5662602e-08 0.0030672353 0 -0.00018909737 0 0)
(5.9934059e-08 0.0018387015 0 -6.8074189e-05 0 0)
(1.2516269e-07 0.00061247651 0 -7.6763814e-06 0 0)
(1.272714e-07 -0.00061248818 0 -7.6786333e-06 0 0)
(5.6480447e-08 -0.0018387059 0 -6.8070992e-05 0 0)
(-7.0012362e-08 -0.0030672324 0 -0.00018909272 0 0)
(-1.1980761e-07 -0.0042954099 0 -0.00037091273 0 0)
(-9.4076812e-08 0.0042954372 0 -0.0003709435 0 0)
(-6.4760373e-08 0.0030672125 0 -0.00018909594 0 0)
(4.4071045e-08 0.0018386898 0 -6.8057507e-05 0 0)
(1.1061717e-07 0.00061247949 0 -7.6615298e-06 0 0)
(1.1096483e-07 -0.00061248753 0 -7.6620818e-06 0 0)
(4.0476104e-08 -0.0018386937 0 -6.8054054e-05 0 0)
(-6.8119677e-08 -0.0030672103 0 -0.00018909243 0 0)
(-9.5696825e-08 -0.004295429 0 -0.00037094122 0 0)
(-7.1991346e-08 0.004295451 0 -0.00037096851 0 0)
(-5.3796163e-08 0.0030671949 0 -0.00018910524 0 0)
(3.2136004e-08 0.0018386719 0 -6.804366e-05 0 0)
(9.8747265e-08 0.00061247308 0 -7.6495058e-06 0 0)
(9.5786719e-08 -0.00061248121 0 -7.6465991e-06 0 0)
(2.8638483e-08 -0.0018386754 0 -6.8040355e-05 0 0)
(-5.7442938e-08 -0.0030671932 0 -0.00018910137 0 0)
(-7.3791338e-08 -0.0042954429 0 -0.00037096613 0 0)
(-5.6528776e-08 0.0042954611 0 -0.00037098622 0 0)
(-4.581179e-08 0.0030671821 0 -0.00018911113 0 0)
(1.9742059e-08 0.0018386492 0 -6.8030186e-05 0 0)
(7.2776517e-08 0.00061246552 0 -7.6229317e-06 0 0)
(7.3437656e-08 -0.00061247313 0 -7.6237583e-06 0 0)
(1.707095e-08 -0.0018386537 0 -6.8027656e-05 0 0)
(-4.8954776e-08 -0.00306718 0 -0.00018910784 0 0)
(-5.8051404e-08 -0.004295454 0 -0.00037098415 0 0)
(-4.012186e-08 0.0042954699 0 -0.00037100399 0 0)
(-3.4956328e-08 0.0030671664 0 -0.00018912115 0 0)
(1.5868677e-08 0.0018386329 0 -6.8024963e-05 0 0)
(6.7742353e-08 0.00061246144 0 -7.6177759e-06 0 0)
(6.2633746e-08 -0.00061246683 0 -7.6126883e-06 0 0)
(1.2670686e-08 -0.0018386356 0 -6.8021925e-05 0 0)
(-3.8260146e-08 -0.0030671647 0 -0.00018911764 0 0)
(-4.1729013e-08 -0.0042954631 0 -0.0003710019 0 0)
(-3.138422e-08 0.0042954758 0 -0.00037101389 0 0)
(-2.8727546e-08 0.0030671578 0 -0.00018912585 0 0)
(1.0641833e-08 0.0018386179 0 -6.8019096e-05 0 0)
(4.6138426e-08 0.00061245251 0 -7.5956373e-06 0 0)
(4.473132e-08 -0.00061245871 0 -7.5943576e-06 0 0)
(7.6575047e-09 -0.001838621 0 -6.8016212e-05 0 0)
(-3.1659861e-08 -0.0030671561 0 -0.00018912279 0 0)
(-3.2793924e-08 -0.0042954699 0 -0.00037101203 0 0)
(-2.1962443e-08 0.0042954808 0 -0.00037102384 0 0)
(-2.1207193e-08 0.0030671476 0 -0.0001891332 0 0)
(9.5607281e-09 0.0018386074 0 -6.8016932e-05 0 0)
(3.8133909e-08 0.00061244844 0 -7.5875563e-06 0 0)
(3.7288394e-08 -0.00061245389 0 -7.5867717e-06 0 0)
(6.764363e-09 -0.0018386099 0 -6.8014261e-05 0 0)
(-2.4191149e-08 -0.0030671462 0 -0.00018913004 0 0)
(-2.3423055e-08 -0.0042954751 0 -0.00037102197 0 0)
(-1.714731e-08 0.0042954844 0 -0.00037102929 0 0)
(-1.7132197e-08 0.0030671424 0 -0.00018913624 0 0)
(6.1104757e-09 0.0018385967 0 -6.8013306e-05 0 0)
(2.7281698e-08 0.0006124424 0 -7.576357e-06 0 0)
(2.597451e-08 -0.00061244745 0 -7.5751485e-06 0 0)
(3.4172722e-09 -0.0018385992 0 -6.8010692e-05 0 0)
(-1.9789584e-08 -0.0030671411 0 -0.00018913346 0 0)
(-1.8436213e-08 -0.0042954795 0 -0.00037102763 0 0)
(-1.2631568e-08 0.0042954873 0 -0.00037103395 0 0)
(-1.3168199e-08 0.0030671367 0 -0.00018914038 0 0)
(5.5558595e-09 0.0018385895 0 -6.8011993e-05 0 0)
(2.2137705e-08 0.00061243966 0 -7.5712254e-06 0 0)
(2.1621766e-08 -0.00061244427 0 -7.5707679e-06 0 0)
(3.1439671e-09 -0.0018385917 0 -6.8009673e-05 0 0)
(-1.5786013e-08 -0.0030671355 0 -0.00018913761 0 0)
(-1.3936835e-08 -0.0042954827 0 -0.00037103231 0 0)
(-9.9396307e-09 0.0042954896 0 -0.00037103704 0 0)
(-1.039877e-08 0.0030671333 0 -0.00018914238 0 0)
(3.8661592e-09 0.0018385828 0 -6.8010371e-05 0 0)
(1.7123979e-08 0.00061243632 0 -7.5659827e-06 0 0)
(1.5764526e-08 -0.00061244004 0 -7.5646976e-06 0 0)
(1.5674975e-09 -0.0018385851 0 -6.8008138e-05 0 0)
(-1.2751457e-08 -0.0030671324 0 -0.00018913991 0 0)
(-1.111846e-08 -0.0042954856 0 -0.00037103555 0 0)
(-8.0461133e-09 0.0042954916 0 -0.00037103893 0 0)
(-8.8652675e-09 0.0030671303 0 -0.00018914427 0 0)
(3.5976098e-09 0.0018385783 0 -6.8009538e-05 0 0)
(1.4800557e-08 0.00061243486 0 -7.5637327e-06 0 0)
(1.4485474e-08 -0.00061243916 0 -7.5634682e-06 0 0)
(1.5539574e-09 -0.0018385803 0 -6.8007567e-05 0 0)
(-1.1089663e-08 -0.0030671294 0 -0.00018914192 0 0)
(-9.19214e-09 -0.0042954878 0 -0.00037103751 0 0)
(-6.6917735e-09 0.0042954932 0 -0.00037104056 0 0)
(-7.0106466e-09 0.0030671281 0 -0.00018914546 0 0)
(2.7535499e-09 0.0018385739 0 -6.8008883e-05 0 0)
(1.2671012e-08 0.00061243298 0 -7.5614319e-06 0 0)
(1.1901769e-08 -0.00061243664 0 -7.5607301e-06 0 0)
(8.5790714e-10 -0.0018385758 0 -6.8007041e-05 0 0)
(-9.0101983e-09 -0.0030671274 0 -0.00018914336 0 0)
(-7.7209806e-09 -0.0042954899 0 -0.00037103928 0 0)
(-5.8512327e-09 0.0042954947 0 -0.00037104135 0 0)
(-6.6953566e-09 0.0030671264 0 -0.00018914622 0 0)
(2.7303434e-09 0.0018385707 0 -6.800838e-05 0 0)
(1.1457426e-08 0.00061243187 0 -7.5603184e-06 0 0)
(1.1120047e-08 -0.00061243548 0 -7.5600193e-06 0 0)
(1.0511993e-09 -0.0018385725 0 -6.8006763e-05 0 0)
(-8.521768e-09 -0.0030671258 0 -0.00018914429 0 0)
(-6.819508e-09 -0.0042954918 0 -0.00037104015 0 0)
(-5.2913441e-09 0.004295496 0 -0.00037104213 0 0)
(-5.4936385e-09 0.003067125 0 -0.00018914681 0 0)
(2.1833081e-09 0.001838568 0 -6.8008095e-05 0 0)
(1.0471604e-08 0.00061243054 0 -7.5591846e-06 0 0)
(9.9113121e-09 -0.00061243369 0 -7.558684e-06 0 0)
(6.7943281e-10 -0.0018385697 0 -6.8006636e-05 0 0)
(-7.1196342e-09 -0.0030671245 0 -0.00018914509 0 0)
(-6.145734e-09 -0.0042954934 0 -0.00037104107 0 0)
(-4.8171029e-09 0.0042954973 0 -0.00037104253 0 0)
(-5.6632611e-09 0.0030671239 0 -0.00018914712 0 0)
(2.3155918e-09 0.0018385654 0 -6.8007789e-05 0 0)
(9.7393085e-09 0.00061242967 0 -7.5585656e-06 0 0)
(9.3867951e-09 -0.0006124326 0 -7.558241e-06 0 0)
(9.9132672e-10 -0.0018385669 0 -6.800652e-05 0 0)
(-7.1096738e-09 -0.0030671234 0 -0.00018914559 0 0)
(-5.598789e-09 -0.004295495 0 -0.00037104156 0 0)
(-4.6357665e-09 0.0042954984 0 -0.00037104291 0 0)
(-4.813982e-09 0.0030671229 0 -0.00018914738 0 0)
(1.8307747e-09 0.0018385636 0 -6.8007606e-05 0 0)
(9.2659464e-09 0.00061242859 0 -7.5579538e-06 0 0)
(8.8325482e-09 -0.00061243119 0 -7.5575739e-06 0 0)
(6.8440282e-10 -0.0018385651 0 -6.8006498e-05 0 0)
(-6.0837581e-09 -0.0030671225 0 -0.00018914604 0 0)
(-5.3162045e-09 -0.0042954963 0 -0.00037104206 0 0)
(-4.3060687e-09 0.0042954997 0 -0.00037104316 0 0)
(-5.1677576e-09 0.003067122 0 -0.00018914754 0 0)
(2.0389819e-09 0.0018385613 0 -6.8007406e-05 0 0)
(8.7431092e-09 0.00061242786 0 -7.5575509e-06 0 0)
(8.4346848e-09 -0.00061243025 0 -7.5572626e-06 0 0)
(1.0369308e-09 -0.0018385626 0 -6.8006454e-05 0 0)
(-6.2714989e-09 -0.0030671216 0 -0.00018914637 0 0)
(-4.9121998e-09 -0.0042954978 0 -0.00037104239 0 0)
(-4.2835917e-09 0.0042955007 0 -0.00037104337 0 0)
(-4.4693021e-09 0.0030671212 0 -0.00018914766 0 0)
(1.5762035e-09 0.0018385599 0 -6.8007261e-05 0 0)
(8.5002505e-09 0.0006124269 0 -7.5571733e-06 0 0)
(8.1750312e-09 -0.00061242905 0 -7.5568971e-06 0 0)
(7.3548055e-10 -0.0018385611 0 -6.8006453e-05 0 0)
(-5.4238223e-09 -0.0030671209 0 -0.00018914665 0 0)
(-4.8044081e-09 -0.004295499 0 -0.0003710427 0 0)
(-4.0119099e-09 0.0042955019 0 -0.00037104355 0 0)
(-4.8937465e-09 0.0030671205 0 -0.00018914776 0 0)
(1.8210529e-09 0.0018385579 0 -6.8007114e-05 0 0)
(8.0707757e-09 0.00061242625 0 -7.5568675e-06 0 0)
(7.8314653e-09 -0.00061242823 0 -7.5566425e-06 0 0)
(1.0906892e-09 -0.0018385589 0 -6.8006431e-05 0 0)
(-5.7062252e-09 -0.0030671202 0 -0.0001891469 0 0)
(-4.4650073e-09 -0.0042955004 0 -0.00037104296 0 0)
(-4.0516543e-09 0.0042955028 0 -0.00037104369 0 0)
(-4.2492718e-09 0.0030671198 0 -0.00018914784 0 0)
(1.3764313e-09 0.0018385567 0 -6.8006994e-05 0 0)
(7.932347e-09 0.00061242536 0 -7.556596e-06 0 0)
(7.6972386e-09 -0.00061242715 0 -7.5564066e-06 0 0)
(7.8166279e-10 -0.0018385576 0 -6.8006429e-05 0 0)
(-4.9410339e-09 -0.0030671195 0 -0.0001891471 0 0)
(-4.4354113e-09 -0.0042955014 0 -0.00037104319 0 0)
(-3.8009953e-09 0.004295504 0 -0.00037104384 0 0)
(-4.6982894e-09 0.0030671191 0 -0.00018914791 0 0)
(1.6429119e-09 0.0018385548 0 -6.8006878e-05 0 0)
(7.5474084e-09 0.00061242475 0 -7.5563371e-06 0 0)
(7.3763738e-09 -0.0006124264 0 -7.5561759e-06 0 0)
(1.1277956e-09 -0.0018385556 0 -6.8006408e-05 0 0)
(-5.2775427e-09 -0.0030671188 0 -0.0001891473 0 0)
(-4.1281745e-09 -0.0042955027 0 -0.00037104341 0 0)
(-3.8638583e-09 0.0042955049 0 -0.00037104396 0 0)
(-4.0677479e-09 0.0030671185 0 -0.00018914798 0 0)
(1.2148635e-09 0.0018385536 0 -6.800678e-05 0 0)
(7.4583616e-09 0.0006124239 0 -7.5561161e-06 0 0)
(7.2937673e-09 -0.00061242542 0 -7.5559946e-06 0 0)
(8.0761745e-10 -0.0018385544 0 -6.80064e-05 0 0)
(-4.5532648e-09 -0.0030671182 0 -0.00018914747 0 0)
(-4.1369817e-09 -0.0042955037 0 -0.00037104359 0 0)
(-3.6191566e-09 0.0042955061 0 -0.0003710441 0 0)
(-4.5219601e-09 0.0030671179 0 -0.00018914806 0 0)
(1.497128e-09 0.0018385519 0 -6.8006685e-05 0 0)
(7.0978321e-09 0.00061242331 0 -7.5558835e-06 0 0)
(6.9827685e-09 -0.00061242472 0 -7.5557747e-06 0 0)
(1.1431382e-09 -0.0018385526 0 -6.8006374e-05 0 0)
(-4.9236767e-09 -0.0030671176 0 -0.00018914763 0 0)
(-3.8480755e-09 -0.0042955049 0 -0.00037104378 0 0)
(-3.6902196e-09 0.0042955069 0 -0.00037104421 0 0)
(-3.8910476e-09 0.0030671173 0 -0.00018914813 0 0)
(1.0838756e-09 0.0018385508 0 -6.8006606e-05 0 0)
(7.0346675e-09 0.00061242251 0 -7.5556893e-06 0 0)
(6.9216538e-09 -0.00061242384 0 -7.5556174e-06 0 0)
(8.1233198e-10 -0.0018385514 0 -6.8006359e-05 0 0)
(-4.2227726e-09 -0.003067117 0 -0.00018914778 0 0)
(-3.8790338e-09 -0.0042955058 0 -0.00037104394 0 0)
(-3.4459643e-09 0.004295508 0 -0.00037104435 0 0)
(-4.3435557e-09 0.0030671167 0 -0.00018914822 0 0)
(1.378679e-09 0.0018385491 0 -6.8006526e-05 0 0)
(6.690036e-09 0.00061242194 0 -7.555474e-06 0 0)
(6.6158066e-09 -0.00061242317 0 -7.5554033e-06 0 0)
(1.1386714e-09 -0.0018385497 0 -6.8006327e-05 0 0)
(-4.6173847e-09 -0.0030671164 0 -0.00018914792 0 0)
(-3.6021561e-09 -0.004295507 0 -0.00037104411 0 0)
(-3.5200362e-09 0.0042955088 0 -0.00037104445 0 0)
(-3.7083776e-09 0.0030671162 0 -0.00018914829 0 0)
(9.7798878e-10 0.0018385481 0 -6.8006464e-05 0 0)
(6.6425803e-09 0.00061242117 0 -7.5552966e-06 0 0)
(6.5647428e-09 -0.00061242237 0 -7.5552582e-06 0 0)
(7.9895967e-10 -0.0018385486 0 -6.8006307e-05 0 0)
(-3.9316193e-09 -0.0030671159 0 -0.00018914805 0 0)
(-3.6481264e-09 -0.0042955078 0 -0.00037104425 0 0)
(-3.2746447e-09 0.0042955099 0 -0.00037104459 0 0)
(-4.1578749e-09 0.0030671156 0 -0.00018914838 0 0)
(1.2826056e-09 0.0018385465 0 -6.8006397e-05 0 0)
(6.3098264e-09 0.00061242062 0 -7.5550944e-06 0 0)
(6.2627048e-09 -0.00061242172 0 -7.5550485e-06 0 0)
(1.1182557e-09 -0.001838547 0 -6.8006272e-05 0 0)
(-4.3454983e-09 -0.0030671153 0 -0.00018914819 0 0)
(-3.3799166e-09 -0.0042955089 0 -0.00037104441 0 0)
(-3.3503078e-09 0.0042955106 0 -0.00037104469 0 0)
(-3.518488e-09 0.0030671151 0 -0.00018914846 0 0)
(8.9180021e-10 0.0018385455 0 -6.8006347e-05 0 0)
(6.273369e-09 0.0006124199 0 -7.554929e-06 0 0)
(6.2176719e-09 -0.00061242099 0 -7.5549114e-06 0 0)
(7.7185585e-10 -0.001838546 0 -6.8006248e-05 0 0)
(-3.6708803e-09 -0.0030671148 0 -0.0001891483 0 0)
(-3.4371808e-09 -0.0042955097 0 -0.00037104454 0 0)
(-3.1037543e-09 0.0042955116 0 -0.00037104482 0 0)
(-3.9657542e-09 0.0030671146 0 -0.00018914856 0 0)
(1.2038746e-09 0.001838544 0 -6.8006291e-05 0 0)
(5.9502668e-09 0.00061241936 0 -7.5547375e-06 0 0)
(5.919436e-09 -0.00061242036 0 -7.554706e-06 0 0)
(1.0860845e-09 -0.0018385444 0 -6.8006212e-05 0 0)
(-4.0974441e-09 -0.0030671143 0 -0.00018914843 0 0)
(-3.1755104e-09 -0.0042955108 0 -0.00037104468 0 0)
(-3.1809537e-09 0.0042955123 0 -0.00037104491 0 0)
(-3.323558e-09 0.0030671141 0 -0.00018914865 0 0)
(8.2046507e-10 0.0018385431 0 -6.8006252e-05 0 0)
(5.9223693e-09 0.00061241868 0 -7.5545817e-06 0 0)
(5.8791575e-09 -0.00061241971 0 -7.5545754e-06 0 0)
(7.3503364e-10 -0.0018385435 0 -6.8006185e-05 0 0)
(-3.4320591e-09 -0.0030671138 0 -0.00018914853 0 0)
(-3.2416336e-09 -0.0042955115 0 -0.0003710448 0 0)
(-2.9337782e-09 0.0042955133 0 -0.00037104504 0 0)
(-3.7699859e-09 0.0030671136 0 -0.00018914875 0 0)
(1.1379543e-09 0.0018385416 0 -6.8006203e-05 0 0)
(5.6075187e-09 0.00061241816 0 -7.5543993e-06 0 0)
(5.5852307e-09 -0.00061241909 0 -7.5543746e-06 0 0)
(1.0458739e-09 -0.001838542 0 -6.8006148e-05 0 0)
(-3.8686459e-09 -0.0030671133 0 -0.00018914865 0 0)
(-2.9851652e-09 -0.0042955125 0 -0.00037104494 0 0)
(-3.0128858e-09 0.004295514 0 -0.00037104514 0 0)
(-3.1267068e-09 0.0030671132 0 -0.00018914883 0 0)
(7.5985044e-10 0.0018385408 0 -6.8006171e-05 0 0)
(5.586764e-09 0.00061241753 0 -7.5542515e-06 0 0)
(5.5493632e-09 -0.00061241851 0 -7.55425e-06 0 0)
(6.9196476e-10 -0.0018385412 0 -6.8006121e-05 0 0)
(-3.2106606e-09 -0.0030671128 0 -0.00018914875 0 0)
(-3.0583855e-09 -0.0042955131 0 -0.00037104504 0 0)
(-2.7657796e-09 0.0042955149 0 -0.00037104526 0 0)
(-3.5736418e-09 0.0030671127 0 -0.00018914894 0 0)
(1.0810957e-09 0.0018385394 0 -6.8006129e-05 0 0)
(5.279269e-09 0.00061241702 0 -7.554077e-06 0 0)
(5.2604206e-09 -0.00061241789 0 -7.5540543e-06 0 0)
(1.0007112e-09 -0.0018385398 0 -6.8006084e-05 0 0)
(-3.6552139e-09 -0.0030671124 0 -0.00018914886 0 0)
(-2.8061065e-09 -0.0042955141 0 -0.00037104517 0 0)
(-2.8472383e-09 0.0042955155 0 -0.00037104535 0 0)
(-2.9311606e-09 0.0030671123 0 -0.00018914903 0 0)
(7.0669273e-10 0.0018385386 0 -6.8006102e-05 0 0)
(5.264784e-09 0.00061241644 0 -7.5539363e-06 0 0)
(5.2289057e-09 -0.00061241738 0 -7.5539354e-06 0 0)
(6.4540167e-10 -0.001838539 0 -6.8006057e-05 0 0)
(-3.0032271e-09 -0.0030671119 0 -0.00018914895 0 0)
(-2.8851877e-09 -0.0042955147 0 -0.00037104527 0 0)
(-2.6008723e-09 0.0042955164 0 -0.00037104547 0 0)
(-3.3790488e-09 0.0030671119 0 -0.00018914913 0 0)
(1.0304233e-09 0.0018385373 0 -6.8006065e-05 0 0)
(4.9641003e-09 0.00061241595 0 -7.5537691e-06 0 0)
(4.9456334e-09 -0.00061241678 0 -7.5537454e-06 0 0)
(9.5299334e-10 -0.0018385376 0 -6.8006022e-05 0 0)
(-3.4541102e-09 -0.0030671115 0 -0.00018914906 0 0)
(-2.6362617e-09 -0.0042955156 0 -0.0003710454 0 0)
(-2.6850702e-09 0.004295517 0 -0.00037104556 0 0)
(-2.739423e-09 0.0030671114 0 -0.00018914922 0 0)
(6.5858455e-10 0.0018385366 0 -6.8006042e-05 0 0)
(4.9553506e-09 0.00061241541 0 -7.5536348e-06 0 0)
(4.9184861e-09 -0.00061241632 0 -7.553632e-06 0 0)
(5.9739828e-10 -0.0018385369 0 -6.8005996e-05 0 0)
(-2.8071868e-09 -0.0030671111 0 -0.00018914915 0 0)
(-2.7203466e-09 -0.0042955162 0 -0.00037104549 0 0)
(-2.440031e-09 0.0042955178 0 -0.00037104568 0 0)
(-3.1878641e-09 0.003067111 0 -0.00018914932 0 0)
(9.8388084e-10 0.0018385353 0 -6.8006009e-05 0 0)
(4.6611895e-09 0.00061241494 0 -7.5534744e-06 0 0)
(4.6415065e-09 -0.00061241573 0 -7.5534482e-06 0 0)
(9.0447906e-10 -0.0018385356 0 -6.8005962e-05 0 0)
(-3.2632184e-09 -0.0030671107 0 -0.00018914925 0 0)
(-2.474264e-09 -0.004295517 0 -0.00037104561 0 0)
(-2.5272658e-09 0.0042955183 0 -0.00037104576 0 0)
(-2.5517812e-09 0.0030671106 0 -0.0001891494 0 0)
(6.1386572e-10 0.0018385346 0 -6.8005989e-05 0 0)
(4.6578687e-09 0.00061241444 0 -7.553346e-06 0 0)
(4.6187563e-09 -0.00061241532 0 -7.5533401e-06 0 0)
(5.4940759e-10 -0.001838535 0 -6.8005937e-05 0 0)
(-2.6207907e-09 -0.0030671103 0 -0.00018914933 0 0)
(-2.5627395e-09 -0.0042955176 0 -0.00037104569 0 0)
(-2.2840419e-09 0.0042955191 0 -0.00037104587 0 0)
(-3.0027709e-09 0.0030671103 0 -0.0001891495 0 0)
(9.400989e-10 0.0018385335 0 -6.8005958e-05 0 0)
(4.3701225e-09 0.00061241399 0 -7.5531921e-06 0 0)
(4.3485933e-09 -0.00061241475 0 -7.553163e-06 0 0)
(8.5639254e-10 -0.0018385338 0 -6.8005905e-05 0 0)
(-3.0811577e-09 -0.0030671099 0 -0.00018914943 0 0)
(-2.3192307e-09 -0.0042955184 0 -0.0003710458 0 0)
(-2.3745241e-09 0.0042955196 0 -0.00037104595 0 0)
(-2.3700831e-09 0.0030671099 0 -0.00018914959 0 0)
(5.714715e-10 0.0018385328 0 -6.800594e-05 0 0)
(4.3720742e-09 0.00061241353 0 -7.5530694e-06 0 0)
(4.3302663e-09 -0.00061241438 0 -7.5530599e-06 0 0)
(5.0240265e-10 -0.0018385332 0 -6.8005882e-05 0 0)
(-2.4429216e-09 -0.0030671096 0 -0.00018914951 0 0)
(-2.4116782e-09 -0.0042955189 0 -0.00037104589 0 0)
(-2.1335059e-09 0.0042955204 0 -0.00037104606 0 0)
(-2.8246035e-09 0.0030671095 0 -0.00018914968 0 0)
(8.9823411e-10 0.0018385317 0 -6.8005912e-05 0 0)
(4.0907515e-09 0.00061241311 0 -7.5529219e-06 0 0)
(4.0673416e-09 -0.00061241384 0 -7.5528898e-06 0 0)
(8.0953998e-10 -0.001838532 0 -6.8005852e-05 0 0)
(-2.9070898e-09 -0.0030671092 0 -0.0001891496 0 0)
(-2.1706363e-09 -0.0042955196 0 -0.00037104599 0 0)
(-2.2273661e-09 0.0042955208 0 -0.00037104613 0 0)
(-2.1956635e-09 0.0030671091 0 -0.00018914976 0 0)
(5.3077239e-10 0.0018385311 0 -6.8005895e-05 0 0)
(4.0979103e-09 0.00061241268 0 -7.5528047e-06 0 0)
(4.053451e-09 -0.0006124135 0 -7.5527917e-06 0 0)
(4.5699772e-10 -0.0018385315 0 -6.8005831e-05 0 0)
(-2.2729178e-09 -0.0030671089 0 -0.00018914968 0 0)
(-2.2667823e-09 -0.0042955201 0 -0.00037104607 0 0)
(-1.9888582e-09 0.0042955215 0 -0.00037104624 0 0)
(-2.6538347e-09 0.0030671088 0 -0.00018914986 0 0)
(8.5781678e-10 0.0018385301 0 -6.8005869e-05 0 0)
(3.823083e-09 0.00061241228 0 -7.5526636e-06 0 0)
(3.7980887e-09 -0.00061241299 0 -7.5526288e-06 0 0)
(7.6442177e-10 -0.0018385304 0 -6.8005803e-05 0 0)
(-2.740549e-09 -0.0030671086 0 -0.00018914977 0 0)
(-2.0282062e-09 -0.0042955208 0 -0.00037104617 0 0)
(-2.0861654e-09 0.0042955219 0 -0.00037104631 0 0)
(-2.0290084e-09 0.0030671085 0 -0.00018914993 0 0)
(4.9143805e-10 0.0018385295 0 -6.8005853e-05 0 0)
(3.8354297e-09 0.00061241189 0 -7.5525518e-06 0 0)
(3.7886297e-09 -0.00061241268 0 -7.5525355e-06 0 0)
(4.1355334e-10 -0.0018385299 0 -6.8005783e-05 0 0)
(-2.1104206e-09 -0.0030671082 0 -0.00018914985 0 0)
(-2.1278768e-09 -0.0042955212 0 -0.00037104625 0 0)
(-1.8504013e-09 0.0042955226 0 -0.00037104641 0 0)
(-2.4908323e-09 0.0030671082 0 -0.00018915002 0 0)
(8.1862673e-10 0.0018385285 0 -6.8005828e-05 0 0)
(3.5671924e-09 0.00061241151 0 -7.5524169e-06 0 0)
(3.5410666e-09 -0.00061241219 0 -7.5523801e-06 0 0)
(7.2132623e-10 -0.0018385288 0 -6.8005757e-05 0 0)
(-2.5813061e-09 -0.0030671079 0 -0.00018914994 0 0)
(-1.8918261e-09 -0.0042955219 0 -0.00037104634 0 0)
(-1.9511772e-09 0.0042955229 0 -0.00037104647 0 0)
(-1.8703741e-09 0.0030671079 0 -0.0001891501 0 0)
(4.5333076e-10 0.0018385281 0 -6.8005814e-05 0 0)
(3.5847213e-09 0.00061241114 0 -7.5523104e-06 0 0)
(3.5360116e-09 -0.00061241191 0 -7.5522913e-06 0 0)