/*--------------------------------*- C++ -*----------------------------------*\
| =========                 |                                                 |
| \\      /  F ield         | OpenFOAM: The Open Source CFD Toolbox           |
|  \\    /   O peration     | Version:  5.x                                   |
|   \\  /    A nd           | Web:      www.OpenFOAM.org                      |
|    \\/     M anipulation  |                                                 |
\*---------------------------------------------------------------------------*/
FoamFile
{
    version     2.0;
    format      ascii;
    class       volVectorField;
    location    "3";
    object      U;
}
// * * * * * * * * * * * * * * * * * * * * * * * * * * * * * * * * * * * * * //

dimensions      [0 1 -1 0 0 0 0];

internalField   nonuniform List<vector> 
1920
(
(-1.5319244e-07 8.6589881e-08 0)
(-5.0597056e-07 5.1897449e-08 0)
(-8.0262398e-07 -1.9865042e-08 0)
(-3.8707716e-07 -7.1957858e-08 0)
(3.8774942e-07 -7.3085194e-08 0)
(8.030278e-07 -1.8843378e-08 0)
(5.0619175e-07 5.1221683e-08 0)
(1.5312137e-07 8.6831574e-08 0)
(-8.4448883e-08 2.2908955e-07 0)
(-1.1759053e-06 4.199734e-07 0)
(-1.7988344e-06 -5.5698246e-08 0)
(-9.0783989e-07 -6.1195928e-07 0)
(9.0943023e-07 -6.0979907e-07 0)
(1.8002094e-06 -5.7236438e-08 0)
(1.1761459e-06 4.2146698e-07 0)
(8.4736114e-08 2.2871883e-07 0)
(-1.637682e-07 6.2447781e-07 0)
(-1.7202202e-06 9.7539023e-07 0)
(-2.5687581e-06 -1.4525153e-07 0)
(-1.2148228e-06 -1.43086e-06 0)
(1.2172273e-06 -1.4338147e-06 0)
(2.5702161e-06 -1.4186249e-07 0)
(1.7212855e-06 9.7406253e-07 0)
(1.6355741e-07 6.2542445e-07 0)
(-2.0850597e-07 1.1315479e-06 0)
(-2.1514506e-06 1.6540929e-06 0)
(-2.9990579e-06 -2.8386444e-07 0)
(-1.4826669e-06 -2.5018108e-06 0)
(1.4851812e-06 -2.4972834e-06 0)
(3.0012071e-06 -2.8640824e-07 0)
(2.1520444e-06 1.6576352e-06 0)
(2.0884552e-07 1.131096e-06 0)
(-2.6147434e-07 1.7378974e-06 0)
(-2.3238516e-06 2.4231357e-06 0)
(-3.3024178e-06 -4.7102672e-07 0)
(-1.5324669e-06 -3.692078e-06 0)
(1.5350598e-06 -3.6962973e-06 0)
(3.3040703e-06 -4.6538386e-07 0)
(2.3250135e-06 2.4217795e-06 0)
(2.6135673e-07 1.739668e-06 0)
(-2.5128241e-07 2.3868202e-06 0)
(-2.4207925e-06 3.2103094e-06 0)
(-3.2979738e-06 -6.587778e-07 0)
(-1.621363e-06 -4.9431828e-06 0)
(1.6234057e-06 -4.9371839e-06 0)
(3.299703e-06 -6.6149482e-07 0)
(2.4213698e-06 3.2154326e-06 0)
(2.5150432e-07 2.3865891e-06 0)
(-2.645107e-07 3.0256248e-06 0)
(-2.2993683e-06 3.995193e-06 0)
(-3.2487263e-06 -8.5801277e-07 0)
(-1.4998718e-06 -6.1663645e-06 0)
(1.5013718e-06 -6.170969e-06 0)
(3.249735e-06 -8.5113657e-07 0)
(2.3000131e-06 3.994214e-06 0)
(2.6451858e-07 3.0279442e-06 0)
(-2.2395636e-07 3.6315826e-06 0)
(-2.1649736e-06 4.7283848e-06 0)
(-2.9574749e-06 -1.0368318e-06 0)
(-1.4509772e-06 -7.3315036e-06 0)
(1.4516584e-06 -7.325138e-06 0)
(2.9580263e-06 -1.0392416e-06 0)
(2.1652423e-06 4.7341385e-06 0)
(2.2397408e-07 3.6316115e-06 0)
(-2.1163627e-07 4.1748892e-06 0)
(-1.8892767e-06 5.402953e-06 0)
(-2.686978e-06 -1.2061924e-06 0)
(-1.2455641e-06 -8.3782502e-06 0)
(1.2454456e-06 -8.3825327e-06 0)
(2.6869596e-06 -1.199315e-06 0)
(1.8891882e-06 5.402377e-06 0)
(2.1173585e-07 4.1772955e-06 0)
(-1.6383043e-07 4.6497966e-06 0)
(-1.6451474e-06 5.9893074e-06 0)
(-2.2792948e-06 -1.341746e-06 0)
(-1.1200459e-06 -9.3058198e-06 0)
(1.1192262e-06 -9.3000622e-06 0)
(2.2785853e-06 -1.3436899e-06 0)
(1.6450235e-06 5.9946678e-06 0)
(1.6367618e-07 4.6499634e-06 0)
(-1.4084656e-07 5.0439515e-06 0)
(-1.3372853e-06 6.492771e-06 0)
(-1.9294867e-06 -1.4608547e-06 0)
(-9.038661e-07 -1.0082251e-05 0)
(9.0233243e-07 -1.0085805e-05 0)
(1.9285391e-06 -1.4550012e-06 0)
(1.3366016e-06 6.492402e-06 0)
(1.4098759e-07 5.0460244e-06 0)
(-1.0047028e-07 5.3640495e-06 0)
(-1.0808917e-06 6.9021242e-06 0)
(-1.5341206e-06 -1.547068e-06 0)
(-7.5587339e-07 -1.0726238e-05 0)
(7.5393403e-07 -1.0721693e-05 0)
(1.5325156e-06 -1.548633e-06 0)
(1.0804529e-06 6.9063454e-06 0)
(1.0023105e-07 5.3641911e-06 0)
(-7.7108019e-08 5.6101141e-06 0)
(-8.1916153e-07 7.2314761e-06 0)
(-1.2083472e-06 -1.6173261e-06 0)
(-5.7599996e-07 -1.1228987e-05 0)
(5.7357474e-07 -1.1231721e-05 0)
(1.2067872e-06 -1.6130841e-06 0)
(8.1815778e-07 7.231047e-06 0)
(7.7244182e-08 5.6116016e-06 0)
(-4.9777128e-08 5.7949298e-06 0)
(-6.0920389e-07 7.4812886e-06 0)
(-8.9903233e-07 -1.661866e-06 0)
(-4.4483737e-07 -1.1619017e-05 0)
(4.4225075e-07 -1.1615886e-05 0)
(8.969626e-07 -1.6632814e-06 0)
(6.0855963e-07 7.4840097e-06 0)
(4.9533483e-08 5.7949098e-06 0)
(-3.1703257e-08 5.9247321e-06 0)
(-4.2614316e-07 7.6690941e-06 0)
(-6.5204128e-07 -1.6952573e-06 0)
(-3.1987698e-07 -1.1900971e-05 0)
(3.1699319e-07 -1.1903029e-05 0)
(6.5013037e-07 -1.6928045e-06 0)
(4.250316e-07 7.6683413e-06 0)
(3.1802154e-08 5.9255467e-06 0)
(-1.7070208e-08 6.0130662e-06 0)
(-2.8383806e-07 7.8004006e-06 0)
(-4.4931457e-07 -1.7116794e-06 0)
(-2.2394116e-07 -1.2103755e-05 0)
(2.2099989e-07 -1.2101952e-05 0)
(4.4703982e-07 -1.7132408e-06 0)
(2.8304614e-07 7.8015478e-06 0)
(1.6864866e-08 6.012778e-06 0)
(-5.7195467e-09 6.0673617e-06 0)
(-1.7753022e-07 7.8916704e-06 0)
(-2.9161092e-07 -1.7224325e-06 0)
(-1.5107019e-07 -1.2236637e-05 0)
(1.4793435e-07 -1.2238289e-05 0)
(2.8946924e-07 -1.7217063e-06 0)
(1.7639821e-07 7.8903443e-06 0)
(5.7653657e-09 6.0675043e-06 0)
(-3.9222044e-10 6.0985918e-06 0)
(-9.6838313e-08 7.9487129e-06 0)
(-1.807804e-07 -1.7237451e-06 0)
(-9.1298403e-08 -1.2322992e-05 0)
(8.8131406e-08 -1.2322311e-05 0)
(1.7839486e-07 -1.7257587e-06 0)
(9.5916016e-08 7.9483389e-06 0)
(2.3246076e-10 6.0979403e-06 0)
(5.4740561e-09 6.1125558e-06 0)
(-4.7677094e-08 7.9842633e-06 0)
(-9.5780047e-08 -1.7235048e-06 0)
(-5.7116383e-08 -1.2371168e-05 0)
(5.3836063e-08 -1.2372686e-05 0)
(9.3473351e-08 -1.7243591e-06 0)
(4.6545449e-08 7.9821367e-06 0)
(-5.4810349e-09 6.1120477e-06 0)
(5.3936763e-09 6.1165341e-06 0)
(-1.0248931e-08 8.0023264e-06 0)
(-4.8064276e-08 -1.7189908e-06 0)
(-2.4914504e-08 -1.2397053e-05 0)
(2.1638468e-08 -1.2397278e-05 0)
(4.5645327e-08 -1.7217155e-06 0)
(9.2318955e-09 8.0005145e-06 0)
(-5.5163499e-09 6.1154362e-06 0)
(7.9223138e-09 6.113926e-06 0)
(4.5580033e-09 8.011272e-06 0)
(-1.0268745e-08 -1.7151617e-06 0)
(-1.4371761e-08 -1.2405944e-05 0)
(1.1110293e-08 -1.2407554e-05 0)
(7.9237423e-09 -1.7174373e-06 0)
(-5.6537913e-09 8.0081826e-06 0)
(-7.9689426e-09 6.1127914e-06 0)
(5.4588631e-09 6.1087281e-06 0)
(1.7658755e-08 8.0130601e-06 0)
(1.9650631e-09 -1.7099582e-06 0)
(1.004417e-09 -1.2407065e-05 0)
(-4.1531745e-09 -1.2408007e-05 0)
(-4.2599584e-09 -1.7135443e-06 0)
(-1.8680727e-08 8.0099203e-06 0)
(-5.5519756e-09 6.1071374e-06 0)
(6.519181e-09 6.1023773e-06 0)
(1.6003647e-08 8.01241e-06 0)
(1.4966179e-08 -1.7062e-06 0)
(-3.0426198e-10 -1.2402807e-05 0)
(-2.6504336e-09 -1.240464e-05 0)
(-1.7123418e-08 -1.7097144e-06 0)
(-1.697819e-08 8.0083161e-06 0)
(-6.5850155e-09 6.1006644e-06 0)
(3.4671842e-09 6.0966294e-06 0)
(1.8532735e-08 8.0098442e-06 0)
(1.1313076e-08 -1.7023561e-06 0)
(6.8518707e-09 -1.2397743e-05 0)
(-9.5325959e-09 -1.2399238e-05 0)
(-1.3246959e-08 -1.7068025e-06 0)
(-1.9427936e-08 8.0055538e-06 0)
(-3.5312073e-09 6.0945658e-06 0)
(4.2119095e-09 6.0917604e-06 0)
(1.128411e-08 8.007633e-06 0)
(1.4321642e-08 -1.6998937e-06 0)
(9.8099249e-10 -1.2392365e-05 0)
(-3.2828709e-09 -1.2394445e-05 0)
(-1.6022845e-08 -1.7044051e-06 0)
(-1.2024305e-08 8.0026482e-06 0)
(-4.276038e-09 6.0895667e-06 0)
(1.3654256e-09 6.0883033e-06 0)
(1.096689e-08 8.0055776e-06 0)
(5.7929092e-09 -1.6977317e-06 0)
(5.1777332e-09 -1.2388578e-05 0)
(-7.0631391e-09 -1.239047e-05 0)
(-7.1276073e-09 -1.7028826e-06 0)
(-1.1607713e-08 8.00041e-06 0)
(-1.3966079e-09 6.0858631e-06 0)
(2.2989934e-09 6.0860418e-06 0)
(3.2653386e-09 8.0045856e-06 0)
(6.499203e-09 -1.6965895e-06 0)
(-1.6447723e-09 -1.2385984e-05 0)
(2.6975352e-10 -1.2388257e-05 0)
(-7.5326189e-09 -1.7017863e-06 0)
(-3.6789453e-09 7.9989663e-06 0)
(-2.3460714e-09 6.0835187e-06 0)
(-1.4425648e-10 6.0849911e-06 0)
(3.3816682e-09 8.0042354e-06 0)
(-2.0810028e-09 -1.6957421e-06 0)
(2.1069497e-09 -1.2385213e-05 0)
(-2.9918739e-09 -1.2387341e-05 0)
(1.492256e-09 -1.7013252e-06 0)
(-3.6896839e-09 7.9985453e-06 0)
(1.4834259e-10 6.08233e-06 0)
(1.0877608e-09 6.0848321e-06 0)
(-3.0940823e-09 8.0048094e-06 0)
(-6.8149151e-10 -1.695547e-06 0)
(-4.3395173e-09 -1.2385623e-05 0)
(4.0046013e-09 -1.2387986e-05 0)
(4.0409583e-10 -1.7010738e-06 0)
(3.0429046e-09 7.9989001e-06 0)
(-1.1108372e-09 6.082164e-06 0)
(-1.0139894e-09 6.0854405e-06 0)
(-1.717665e-09 8.0059101e-06 0)
(-7.9219959e-09 -1.6955306e-06 0)
(-1.8488508e-10 -1.2387373e-05 0)
(3.2278571e-10 -1.2389581e-05 0)
(8.0915783e-09 -1.7012202e-06 0)
(1.7518857e-09 8.0000824e-06 0)
(1.0511909e-09 6.0827393e-06 0)
(4.5800474e-10 6.0865544e-06 0)
(-6.8795261e-09 8.007598e-06 0)
(-5.2154325e-09 -1.6958969e-06 0)
(-6.029012e-09 -1.238987e-05 0)
(6.6656348e-09 -1.2392201e-05 0)
(5.6442688e-09 -1.7014019e-06 0)
(7.1621399e-09 8.0017586e-06 0)
(-4.5808337e-10 6.0839263e-06 0)
(-1.4257969e-09 6.0880639e-06 0)
(-4.4186392e-09 8.009574e-06 0)
(-1.117453e-08 -1.696331e-06 0)
(-1.3921543e-09 -1.2393166e-05 0)
(2.4071772e-09 -1.2395314e-05 0)
(1.1990891e-08 -1.7018144e-06 0)
(4.7429443e-09 8.0039633e-06 0)
(1.4892648e-09 6.0854912e-06 0)
(1.9293826e-10 6.0897953e-06 0)
(-8.6677084e-09 8.011857e-06 0)
(-7.4319629e-09 -1.696982e-06 0)
(-6.7909879e-09 -1.2396802e-05 0)
(8.1895644e-09 -1.2398991e-05 0)
(8.4118827e-09 -1.7021657e-06 0)
(9.20658e-09 8.0063982e-06 0)
(-1.7639607e-10 6.0873618e-06 0)
(-1.5752502e-09 6.0916906e-06 0)
(-5.5276364e-09 8.014238e-06 0)
(-1.2551987e-08 -1.6976243e-06 0)
(-1.8346072e-09 -1.2400846e-05 0)
(3.473332e-09 -1.2402826e-05 0)
(1.3824942e-08 -1.7026513e-06 0)
(6.0521262e-09 8.0091205e-06 0)
(1.6554593e-09 6.0893758e-06 0)
(1.1597942e-10 6.093645e-06 0)
(-9.2686008e-09 8.0167553e-06 0)
(-8.200124e-09 -1.6983932e-06 0)
(-6.9926086e-09 -1.2404961e-05 0)
(8.8729542e-09 -1.2406928e-05 0)
(9.5238881e-09 -1.7030405e-06 0)
(9.9633246e-09 8.0118982e-06 0)
(-9.1373084e-11 6.0915117e-06 0)
(-1.5996998e-09 6.0956453e-06 0)
(-5.7856487e-09 8.0192585e-06 0)
(-1.2878357e-08 -1.6991077e-06 0)
(-1.8881831e-09 -1.2409257e-05 0)
(3.8621555e-09 -1.2410999e-05 0)
(1.4393216e-08 -1.7035165e-06 0)
(6.4097862e-09 8.0148074e-06 0)
(1.6869311e-09 6.0936658e-06 0)
(1.1862334e-10 6.0976278e-06 0)
(-9.2900613e-09 8.0218144e-06 0)
(-8.2436742e-09 -1.6999035e-06 0)
(-6.9477792e-09 -1.241348e-05 0)
(9.0269364e-09 -1.2415179e-05 0)
(9.7030968e-09 -1.7038952e-06 0)
(1.0041826e-08 8.0176771e-06 0)
(-9.4068709e-11 6.0958469e-06 0)
(-1.5761945e-09 6.0996076e-06 0)
(-5.6718965e-09 8.0243035e-06 0)
(-1.2730667e-08 -1.7006202e-06 0)
(-1.8078725e-09 -1.2417769e-05 0)
(3.8525101e-09 -1.2419241e-05 0)
(1.4292087e-08 -1.7043405e-06 0)
(6.3056603e-09 8.0205894e-06 0)
(1.6624008e-09 6.0979896e-06 0)
(1.4605984e-10 6.1015407e-06 0)
(-9.0856378e-09 8.0268139e-06 0)
(-8.003828e-09 -1.7013971e-06 0)
(-6.841198e-09 -1.242192e-05 0)
(8.8809273e-09 -1.2423338e-05 0)
(9.4249592e-09 -1.7047022e-06 0)
(9.8136045e-09 8.0234196e-06 0)
(-1.2769447e-10 6.1001165e-06 0)
(-1.5406213e-09 6.1034571e-06 0)
(-5.4378115e-09 8.0292386e-06 0)
(-1.2425754e-08 -1.7020826e-06 0)
(-1.7211051e-09 -1.2426087e-05 0)
(3.630974e-09 -1.2427291e-05 0)
(1.388339e-08 -1.7051225e-06 0)
(6.0135196e-09 8.0262461e-06 0)
(1.6203095e-09 6.1021854e-06 0)
(1.7562404e-10 6.1053205e-06 0)
(-8.8248371e-09 8.0316781e-06 0)
(-7.6972576e-09 -1.7028188e-06 0)
(-6.7523278e-09 -1.2430096e-05 0)
(8.5822626e-09 -1.2431249e-05 0)
(8.9570343e-09 -1.7054757e-06 0)
(9.4733407e-09 8.0289768e-06 0)
(-1.6710047e-10 6.1042222e-06 0)
(-1.5063118e-09 6.1071672e-06 0)
(-5.1912977e-09 8.034029e-06 0)
(-1.2103425e-08 -1.7034586e-06 0)
(-1.670293e-09 -1.2434103e-05 0)
(3.3112641e-09 -1.2435061e-05 0)
(1.3360336e-08 -1.7058836e-06 0)
(5.6669369e-09 8.0316816e-06 0)
(1.5765842e-09 6.1061981e-06 0)
(2.0054972e-10 6.1089625e-06 0)
(-8.5721255e-09 8.0363972e-06 0)
(-7.4061648e-09 -1.7041452e-06 0)
(-6.6986375e-09 -1.243795e-05 0)
(8.219162e-09 -1.2438871e-05 0)
(8.4340062e-09 -1.706239e-06 0)
(9.1106671e-09 8.0342912e-06 0)
(-2.0324475e-10 6.1081375e-06 0)
(-1.4762946e-09 6.1107449e-06 0)
(-4.9659082e-09 8.0386794e-06 0)
(-1.180718e-08 -1.704735e-06 0)
(-1.6544241e-09 -1.2441791e-05 0)
(2.9592903e-09 -1.2442544e-05 0)
(1.2815995e-08 -1.706645e-06 0)
(5.3226881e-09 8.0368649e-06 0)
(1.5363794e-09 6.1100197e-06 0)
(2.2053017e-10 6.1124795e-06 0)
(-8.341963e-09 8.0409825e-06 0)
(-7.1467728e-09 -1.7053699e-06 0)
(-6.6697146e-09 -1.2445479e-05 0)
(7.8421956e-09 -1.2446211e-05 0)
(7.9168776e-09 -1.7070098e-06 0)
(8.7609473e-09 8.0393503e-06 0)
(-2.3410843e-10 6.1118657e-06 0)
(-1.4498435e-09 6.1142044e-06 0)
(-4.7632973e-09 8.0432027e-06 0)
(-1.1537727e-08 -1.7059104e-06 0)
(-1.6565878e-09 -1.244916e-05 0)
(2.6117093e-09 -1.2449753e-05 0)
(1.2290329e-08 -1.70742e-06 0)
(5.0003298e-09 8.0417957e-06 0)
(1.5004338e-09 6.1136601e-06 0)
(2.3715046e-10 6.1158843e-06 0)
(-8.1296679e-09 8.0454459e-06 0)
(-6.9097701e-09 -1.7064955e-06 0)
(-6.6475623e-09 -1.2452698e-05 0)
(7.4789134e-09 -1.2453288e-05 0)
(7.4294063e-09 -1.7077971e-06 0)
(8.4344893e-09 8.0441618e-06 0)
(-2.6020613e-10 6.1154197e-06 0)
(-1.4254168e-09 6.1175563e-06 0)
(-4.5749936e-09 8.0476085e-06 0)
(-1.1281968e-08 -1.7069903e-06 0)
(-1.658458e-09 -1.2456229e-05 0)
(2.2875239e-09 -1.2456708e-05 0)
(1.1797254e-08 -1.7082132e-06 0)
(4.7032975e-09 8.0464864e-06 0)
(1.4680341e-09 6.1171332e-06 0)
(2.5205822e-10 6.1191848e-06 0)
(-7.92609e-09 8.0497937e-06 0)
(-6.6802934e-09 -1.7075293e-06 0)
(-6.6162632e-09 -1.2459626e-05 0)
(7.1428573e-09 -1.2460118e-05 0)
(6.9777949e-09 -1.7086019e-06 0)
(8.1313164e-09 8.0487408e-06 0)
(-2.8267447e-10 6.1188135e-06 0)
(-1.4017197e-09 6.1208058e-06 0)
(-4.3918232e-09 8.0518995e-06 0)
(-1.1026146e-08 -1.7079833e-06 0)
(-1.6462023e-09 -1.2463016e-05 0)
(1.9950179e-09 -1.2463421e-05 0)
(1.1338727e-08 -1.7090224e-06 0)
(4.4289697e-09 8.0509532e-06 0)
(1.4382085e-09 6.1204525e-06 0)
(2.6643017e-10 6.1223839e-06 0)
(-7.723362e-09 8.0540258e-06 0)
(-6.4459884e-09 -1.7084812e-06 0)
(-6.5652544e-09 -1.2466279e-05 0)
(6.8390435e-09 -1.2466711e-05 0)
(6.5605261e-09 -1.7094197e-06 0)
(7.8479347e-09 8.0531037e-06 0)
(-3.0259051e-10 6.1220593e-06 0)
(-1.3779375e-09 6.1239537e-06 0)
(-4.2070637e-09 8.056073e-06 0)
(-1.0760455e-08 -1.7088996e-06 0)
(-1.6117614e-09 -1.2469534e-05 0)
(1.735993e-09 -1.2469901e-05 0)
(1.0911656e-08 -1.7098413e-06 0)
(4.173042e-09 8.0552121e-06 0)
(1.4101211e-09 6.1236287e-06 0)
(2.8094938e-10 6.1254807e-06 0)
(-7.5164186e-09 8.0581374e-06 0)
(-6.1991484e-09 -1.7093615e-06 0)
(-6.4894124e-09 -1.2472669e-05 0)
(6.5674108e-09 -1.2473072e-05 0)
(6.1730717e-09 -1.7102429e-06 0)
(7.5801698e-09 8.0572661e-06 0)
(-3.2079714e-10 6.1251667e-06 0)
(-1.3536718e-09 6.126998e-06 0)
(-4.0168641e-09 8.0601225e-06 0)
(-1.0479673e-08 -1.7097494e-06 0)
(-1.5520749e-09 -1.2475793e-05 0)
(1.5084871e-09 -1.2476149e-05 0)
(1.0511185e-08 -1.7106615e-06 0)
(3.9312593e-09 8.0592774e-06 0)
(1.3831529e-09 6.1266704e-06 0)
(2.9593128e-10 6.1284722e-06 0)
(-7.3028186e-09 8.062121e-06 0)
(-5.9363678e-09 -1.7101802e-06 0)
(-6.3878833e-09 -1.2478804e-05 0)
(6.3250766e-09 -1.2479202e-05 0)
(5.8101136e-09 -1.7110627e-06 0)
(7.3242436e-09 8.0612408e-06 0)
(-3.379036e-10 6.1281429e-06 0)
(-1.3288096e-09 6.1299353e-06 0)
(-3.8197039e-09 8.0640401e-06 0)
(-1.0182328e-08 -1.7105423e-06 0)
(-1.467671e-09 -1.24818e-05 0)
(1.3085828e-09 -1.2482165e-05 0)
(1.0132253e-08 -1.7114743e-06 0)
(3.7000206e-09 8.0631609e-06 0)
(1.3568817e-09 6.1295837e-06 0)
(3.1145787e-10 6.1313549e-06 0)
(-7.0820674e-09 8.0659687e-06 0)
(-5.6574254e-09 -1.7109463e-06 0)
(-6.2626596e-09 -1.2484688e-05 0)
(6.1078377e-09 -1.2485099e-05 0)
(5.4665875e-09 -1.7118705e-06 0)
(7.0771151e-09 8.0650386e-06 0)
(-3.5432961e-10 6.1309934e-06 0)
(-1.3034079e-09 6.1327619e-06 0)
(-3.6156675e-09 8.0678178e-06 0)
(-9.8695167e-09 -1.7112865e-06 0)
(-1.3612909e-09 -1.248756e-05 0)
(1.1316096e-09 -1.2487947e-05 0)
(9.7703119e-09 -1.7122713e-06 0)
(3.4765283e-09 8.0668723e-06 0)
(1.3310409e-09 6.1323734e-06 0)
(3.2747947e-10 6.1341252e-06 0)
(-6.8549286e-09 8.0696728e-06 0)
(-5.3641388e-09 -1.7116672e-06 0)
(-6.11734e-09 -1.2490327e-05 0)
(5.911147e-09 -1.2490761e-05 0)
(5.1381547e-09 -1.7126588e-06 0)
(6.8365298e-09 8.068668e-06 0)
(-3.703507e-10 6.1337221e-06 0)
(-1.2776118e-09 6.1354744e-06 0)
(-3.4058171e-09 8.0714487e-06 0)
(-9.5438671e-09 -1.7119888e-06 0)
(-1.2367959e-09 -1.2493075e-05 0)
(9.7291e-10 -1.2493492e-05 0)
(9.4216365e-09 -1.7130457e-06 0)
(3.2587627e-09 8.0704189e-06 0)
(1.3054808e-09 6.1350426e-06 0)
(3.4388135e-10 6.1367801e-06 0)
(-6.6228801e-09 8.073227e-06 0)
(-5.0594459e-09 -1.7123493e-06 0)
(-5.9562051e-09 -1.2495722e-05 0)
(5.730709e-09 -1.2496186e-05 0)
(4.8213774e-09 -1.7134212e-06 0)
(6.6009552e-09 8.0721356e-06 0)
(-3.8613484e-10 6.1363317e-06 0)
(-1.2516028e-09 6.1380704e-06 0)
(-3.1917303e-09 8.074927e-06 0)
(-9.208756e-09 -1.7126548e-06 0)
(-1.0984026e-09 -1.2498347e-05 0)
(8.2828389e-10 -1.2498799e-05 0)
(9.0834055e-09 -1.7137917e-06 0)
(3.0453902e-09 8.0738066e-06 0)
(1.2801371e-09 6.137594e-06 0)
(3.6052367e-10 6.1393174e-06 0)
(-6.3877316e-09 8.0766265e-06 0)
(-4.7467545e-09 -1.7129972e-06 0)
(-5.7836023e-09 -1.2500876e-05 0)
(5.5627996e-09 -1.2501371e-05 0)
(4.513729e-09 -1.7141528e-06 0)
(6.3694745e-09 8.0754466e-06 0)
(-4.0177091e-10 6.1388246e-06 0)
(-1.2255695e-09 6.1405481e-06 0)
(-2.9751892e-09 8.0782489e-06 0)
(-8.8677798e-09 -1.7132886e-06 0)
(-9.5020055e-10 -1.250338e-05 0)
(6.9420302e-10 -1.2503866e-05 0)
(8.7536599e-09 -1.7145053e-06 0)
(2.8356462e-09 8.07704e-06 0)
(1.2550063e-09 6.1400295e-06 0)
(3.7726363e-10 6.1417361e-06 0)
(-6.1513762e-09 8.0798683e-06 0)
(-4.4295212e-09 -1.7136148e-06 0)
(-5.6035799e-09 -1.2505792e-05 0)
(5.4043948e-09 -1.2506316e-05 0)
(4.2135115e-09 -1.7148502e-06 0)
(6.1416664e-09 8.078605e-06 0)
(-4.1729083e-10 6.1412025e-06 0)
(-1.1996911e-09 6.142907e-06 0)
(-2.757984e-09 8.0814122e-06 0)
(-8.5244267e-09 -1.7138934e-06 0)
(-7.9588487e-10 -1.2508175e-05 0)
(5.6786981e-10 -1.2508693e-05 0)
(8.4311921e-09 -1.7151834e-06 0)
(2.6292137e-09 8.0801228e-06 0)
(1.2301266e-09 6.1423509e-06 0)
(3.9396699e-10 6.1440359e-06 0)
(-5.9156389e-09 8.082951e-06 0)
(-4.1110009e-09 -1.7142047e-06 0)
(-5.4197008e-09 -1.2510471e-05 0)
(5.2531748e-09 -1.2511022e-05 0)
(3.919725e-09 -1.7155109e-06 0)
(5.9174857e-09 8.0816146e-06 0)
(-4.3268717e-10 6.1434673e-06 0)
(-1.1741297e-09 6.1451472e-06 0)
(-2.541799e-09 8.0844164e-06 0)
(-8.1818904e-09 -1.7144715e-06 0)
(-6.3863598e-10 -1.2512736e-05 0)
(4.471806e-10 -1.2513281e-05 0)
(8.1154041e-09 -1.7158245e-06 0)
(2.4261077e-09 8.0830585e-06 0)
(1.205562e-09 6.1445599e-06 0)
(4.1051339e-10 6.1462175e-06 0)
(-5.6821918e-09 8.0858748e-06 0)
(-3.7941132e-09 -1.7147687e-06 0)
(-5.234975e-09 -1.2514917e-05 0)
(5.1074578e-09 -1.2515491e-05 0)
(3.6319204e-09 -1.716134e-06 0)
(5.6971539e-09 8.0844783e-06 0)
(-4.4792695e-10 6.1456207e-06 0)
(-1.1490276e-09 6.14727e-06 0)
(-2.3281501e-09 8.0872622e-06 0)
(-7.8429799e-09 -1.7150244e-06 0)
(-4.8109167e-10 -1.2517067e-05 0)
(3.3063784e-10 -1.2517633e-05 0)
(7.8061599e-09 -1.7164275e-06 0)
(2.2265727e-09 8.08585e-06 0)
(1.1813908e-09 6.1466585e-06 0)
(4.2679834e-10 6.1482826e-06 0)
(-5.4525109e-09 8.0886412e-06 0)
(-3.4813849e-09 -1.7153082e-06 0)
(-5.051862e-09 -1.2519135e-05 0)
(4.9660993e-09 -1.2519725e-05 0)
(3.3500544e-09 -1.7167188e-06 0)
(5.4810644e-09 8.0871993e-06 0)
(-4.6296253e-10 6.1476646e-06 0)
(-1.1245057e-09 6.1492772e-06 0)
(-2.1183559e-09 8.0899518e-06 0)
(-7.5100871e-09 -1.7155533e-06 0)
(-3.2537236e-10 -1.252117e-05 0)
(2.1724197e-10 -1.2521753e-05 0)
(7.5036478e-09 -1.7169927e-06 0)
(2.0309942e-09 8.0885004e-06 0)
(1.1576955e-09 6.1486486e-06 0)
(4.4273345e-10 6.1502331e-06 0)
(-5.2278586e-09 8.091253e-06 0)
(-3.1749377e-09 -1.7158242e-06 0)
(-4.8723131e-09 -1.2523128e-05 0)
(4.8283825e-09 -1.252373e-05 0)
(3.0743602e-09 -1.7172658e-06 0)
(5.2697033e-09 8.0897807e-06 0)
(-4.7773971e-10 6.1496013e-06 0)
(-1.1006647e-09 6.1511712e-06 0)
(-1.9135298e-09 8.0924884e-06 0)
(-7.1851909e-09 -1.716059e-06 0)
(-1.7313249e-10 -1.2525052e-05 0)
(1.0638284e-10 -1.2525645e-05 0)
(7.2082616e-09 -1.7175205e-06 0)
(1.8398293e-09 8.0910129e-06 0)
(1.1345572e-09 6.1505327e-06 0)
(4.5824578e-10 6.1520721e-06 0)
(-5.0092839e-09 8.0937136e-06 0)
(-2.8765018e-09 -1.7163174e-06 0)
(-4.6978296e-09 -1.2526902e-05 0)
(4.6939144e-09 -1.2527509e-05 0)
(2.8052385e-09 -1.7177758e-06 0)
(5.0635886e-09 8.0922257e-06 0)
(-4.9220375e-10 6.1514331e-06 0)
(-1.0775859e-09 6.1529552e-06 0)
(-1.7145832e-09 8.0948759e-06 0)
(-6.8698792e-09 -1.716542e-06 0)
(-2.5621729e-11 -1.2528718e-05 0)
(-2.2592021e-12 -1.2529316e-05 0)
(6.9205035e-09 -1.7180119e-06 0)
(1.6535514e-09 8.0933908e-06 0)
(1.1120501e-09 6.1523133e-06 0)
(4.7327704e-10 6.1538026e-06 0)
(-4.7976294e-09 8.0960275e-06 0)
(-2.5874437e-09 -1.716788e-06 0)
(-4.5295259e-09 -1.2530463e-05 0)
(4.5625351e-09 -1.2531071e-05 0)
(2.5431706e-09 -1.7182501e-06 0)
(4.8632239e-09 8.0945377e-06 0)
(-5.0630333e-10 6.1531629e-06 0)
(-1.0553324e-09 6.1546326e-06 0)
(-1.5222366e-09 8.0971192e-06 0)
(-6.5653817e-09 -1.7170026e-06 0)
(1.1625367e-10 -1.2532173e-05 0)
(-1.0879701e-10 -1.2532771e-05 0)
(6.6409093e-09 -1.7184684e-06 0)
(1.4726117e-09 8.0956376e-06 0)
(1.0902389e-09 6.1539932e-06 0)
(4.8778233e-10 6.1554284e-06 0)
(-4.5935459e-09 8.0981998e-06 0)
(-2.3088003e-09 -1.7172366e-06 0)
(-4.3681901e-09 -1.2533818e-05 0)
(4.4342433e-09 -1.2534421e-05 0)
(2.2886531e-09 -1.71869e-06 0)
(4.6690658e-09 8.0967206e-06 0)
(-5.1999326e-10 6.1547936e-06 0)
(-1.033951e-09 6.1562072e-06 0)
(-1.3370337e-09 8.0992234e-06 0)
(-6.272606e-09 -1.7174413e-06 0)
(2.5187367e-10 -1.2535426e-05 0)
(-2.1320464e-10 -1.2536019e-05 0)
(6.369993e-09 -1.7188916e-06 0)
(1.297411e-09 8.0977572e-06 0)
(1.0691774e-09 6.1555755e-06 0)
(5.0172903e-10 6.1569534e-06 0)
(-4.3975077e-09 8.1002357e-06 0)
(-2.0413147e-09 -1.7176635e-06 0)
(-4.214339e-09 -1.2536972e-05 0)
(4.3091367e-09 -1.2537567e-05 0)
(2.042151e-09 -1.7190974e-06 0)
(4.4815036e-09 8.0987781e-06 0)
(-5.3323592e-10 6.1563284e-06 0)
(-1.0134732e-09 6.1576831e-06 0)
(-1.1593579e-09 8.1011941e-06 0)
(-5.9921746e-09 -1.7178584e-06 0)
(3.808539e-10 -1.2538483e-05 0)
(-3.1537042e-10 -1.2539066e-05 0)
(6.1082098e-09 -1.7192832e-06 0)
(1.1282837e-09 8.0997537e-06 0)
(1.0489073e-09 6.1570636e-06 0)
(5.1509557e-10 6.1583818e-06 0)
(-4.2098307e-09 8.1021411e-06 0)
(-1.7854719e-09 -1.7180689e-06 0)
(-4.0682671e-09 -1.2539935e-05 0)
(4.1873668e-09 -1.2540516e-05 0)
(1.8040655e-09 -1.7194741e-06 0)
(4.3008467e-09 8.1007145e-06 0)
(-5.4600201e-10 6.1577707e-06 0)
(-9.9391718e-10 6.1590645e-06 0)
(-9.8944921e-10 8.1030371e-06 0)
(-5.7244615e-09 -1.7182541e-06 0)
(5.0300135e-10 -1.2541352e-05 0)
(-4.15137e-10 -1.2541922e-05 0)
(5.8559311e-09 -1.719645e-06 0)
(9.6548783e-10 8.1016311e-06 0)
(1.0294588e-09 6.1584609e-06 0)
(5.2787024e-10 6.1597177e-06 0)
(-4.0306906e-09 8.1039218e-06 0)
(-1.5415338e-09 -1.7184532e-06 0)
(-3.9300879e-09 -1.2542713e-05 0)
(4.069106e-09 -1.2543279e-05 0)
(1.5747153e-09 -1.7198218e-06 0)
(4.1273197e-09 8.1025341e-06 0)
(-5.5827053e-10 6.1591239e-06 0)
(-9.7528935e-10 6.1603555e-06 0)
(-8.2742169e-10 8.1047585e-06 0)
(-5.4696264e-09 -1.7186289e-06 0)
(6.1827694e-10 -1.2544039e-05 0)
(-5.1233085e-10 -1.2544594e-05 0)
(5.6134318e-09 -1.7199788e-06 0)
(8.0920223e-10 8.1033941e-06 0)
(1.0108505e-09 6.1597709e-06 0)
(5.4005012e-10 6.1609655e-06 0)
(-3.8601403e-09 8.1055838e-06 0)
(-1.3095713e-09 -1.7188169e-06 0)
(-3.7997703e-09 -1.2545314e-05 0)
(3.9545238e-09 -1.2545861e-05 0)
(1.354326e-09 -1.7201424e-06 0)
(3.9610622e-09 8.1042413e-06 0)
(-5.7002859e-10 6.1603917e-06 0)
(-9.5758566e-10 6.1615607e-06 0)
(-6.7328015e-10 8.1063641e-06 0)
(-5.2276474e-09 -1.718983e-06 0)
(7.2676298e-10 -1.2546554e-05 0)
(-6.0678328e-10 -1.254709e-05 0)
(5.3808846e-09 -1.7202865e-06 0)
(6.5952744e-10 8.1050469e-06 0)
(9.9309088e-10 6.1609973e-06 0)
(5.5163965e-10 6.1621295e-06 0)
(-3.6981273e-09 8.1071331e-06 0)
(-1.0894941e-09 -1.7191602e-06 0)
(-3.6771697e-09 -1.2547746e-05 0)
(3.8437698e-09 -1.2548273e-05 0)
(1.1430271e-09 -1.7204377e-06 0)
(3.8021322e-09 8.1058407e-06 0)
(-5.8127073e-10 6.1615778e-06 0)
(-9.4079324e-10 6.1626841e-06 0)
(-5.2693625e-10 8.1078599e-06 0)
(-4.9983505e-09 -1.7193171e-06 0)
(8.2863623e-10 -1.2548904e-05 0)
(-6.9834473e-10 -1.2549419e-05 0)
(5.158361e-09 -1.7205699e-06 0)
(5.1648956e-10 8.1065943e-06 0)
(9.761791e-10 6.1621438e-06 0)
(5.6264988e-10 6.163214e-06 0)
(-3.5445102e-09 8.1085756e-06 0)
(-8.810791e-10 -1.7194836e-06 0)
(-3.5620533e-09 -1.2550016e-05 0)
(3.7369643e-09 -1.2550522e-05 0)
(9.4085383e-10 -1.7207096e-06 0)
(3.6505121e-09 8.1073368e-06 0)
(-5.9199832e-10 6.1626858e-06 0)
(-9.2489176e-10 6.1637302e-06 0)
(-3.8822344e-10 8.1092518e-06 0)
(-4.781437e-09 -1.7196315e-06 0)
(9.241449e-10 -1.2551096e-05 0)
(-7.868939e-10 -1.255159e-05 0)
(4.9458354e-09 -1.7208307e-06 0)
(3.8004621e-10 8.1080407e-06 0)
(9.6010598e-10 6.1632141e-06 0)
(5.7309722e-10 6.1642231e-06 0)
(-3.3990736e-09 8.1099171e-06 0)
(-6.8399414e-10 -1.7197877e-06 0)
(-3.4541228e-09 -1.2552133e-05 0)
(3.6341912e-09 -1.2552616e-05 0)
(7.4775217e-10 -1.7209595e-06 0)
(3.5061155e-09 8.1087343e-06 0)
(-6.022187e-10 6.1637193e-06 0)
(-9.0985474e-10 6.1647029e-06 0)
(-2.5691116e-10 8.1105454e-06 0)
(-4.5765077e-09 -1.7199268e-06 0)
(1.0135896e-09 -1.2553139e-05 0)
(-8.7234305e-10 -1.2553611e-05 0)
(4.7431929e-09 -1.7210704e-06 0)
(2.5009352e-10 8.1093907e-06 0)
(9.4485521e-10 6.1642117e-06 0)
(5.8300258e-10 6.1651608e-06 0)
(-3.2615423e-09 8.1111631e-06 0)
(-4.9782103e-10 -1.720073e-06 0)
(-3.3530323e-09 -1.2554104e-05 0)
(3.5354962e-09 -1.2554564e-05 0)
(5.6358666e-10 -1.7211893e-06 0)
(3.3687959e-09 8.1100375e-06 0)
(-6.1194437e-10 6.164682e-06 0)
(-8.9565073e-10 6.1656063e-06 0)
(-1.3271718e-10 8.1117462e-06 0)
(-4.3830844e-09 -1.7202035e-06 0)
(1.0973072e-09 -1.2555039e-05 0)
(-9.5464044e-10 -1.2555488e-05 0)
(4.5502382e-09 -1.7212907e-06 0)
(1.264739e-10 8.1106488e-06 0)
(9.3040459e-10 6.1651402e-06 0)
(5.9239033e-10 6.1660311e-06 0)
(-3.1315937e-09 8.1123189e-06 0)
(-3.2207484e-10 -1.7203402e-06 0)
(-3.2584037e-09 -1.2555937e-05 0)
(3.4408855e-09 -1.2556373e-05 0)
(3.8814894e-10 -1.7214002e-06 0)
(3.2383545e-09 8.1112511e-06 0)
(-6.2119225e-10 6.1655774e-06 0)
(-8.8224452e-10 6.166444e-06 0)
(-1.5319157e-11 8.1128594e-06 0)
(-4.2006296e-09 -1.7204623e-06 0)
(1.1756583e-09 -1.2556805e-05 0)
(-1.0337705e-09 -1.2557231e-05 0)
(4.3667056e-09 -1.7214929e-06 0)
(8.9835594e-12 8.1118193e-06 0)
(9.1672695e-10 6.1660031e-06 0)
(6.0128777e-10 6.1668377e-06 0)
(-3.0088691e-09 8.1133897e-06 0)
(-1.5622104e-10 -1.7205896e-06 0)
(-3.1698394e-09 -1.2557638e-05 0)
(3.3503281e-09 -1.2558051e-05 0)
(2.2116726e-10 -1.7215937e-06 0)
(3.1145488e-09 8.1123793e-06 0)
(-6.2998282e-10 6.1664087e-06 0)
(-8.695979e-10 6.1672199e-06 0)
(9.5635477e-11 8.11389e-06 0)
(-4.0285623e-09 -1.7207038e-06 0)
(1.2490163e-09 -1.2558443e-05 0)
(-1.1097525e-09 -1.2558846e-05 0)
(4.1922691e-09 -1.7216784e-06 0)
(-1.026196e-10 8.1129066e-06 0)
(9.0379118e-10 6.1668036e-06 0)
(6.0972425e-10 6.167584e-06 0)
(-2.8929832e-09 8.1143803e-06 0)
(3.0976186e-13 -1.7208221e-06 0)
(-3.0869319e-09 -1.2559215e-05 0)
(3.2637576e-09 -1.2559605e-05 0)
(6.2316239e-11 -1.7217711e-06 0)
(2.9971003e-09 8.1134262e-06 0)
(-6.383395e-10 6.1671794e-06 0)
(-8.5767071e-10 6.1679372e-06 0)
(2.0052087e-10 8.1148427e-06 0)
(-3.8662726e-09 -1.7209285e-06 0)
(1.3177591e-09 -1.2559959e-05 0)
(-1.1826382e-09 -1.256034e-05 0)
(4.026553e-09 -1.7218483e-06 0)
(-2.0860901e-10 8.1139147e-06 0)
(8.9156313e-10 6.167545e-06 0)
(6.1773056e-10 6.1682735e-06 0)
(-2.7835329e-09 8.1152952e-06 0)
(1.4810938e-10 -1.7210382e-06 0)
(-3.0092724e-09 -1.2560673e-05 0)
(3.181076e-09 -1.2561041e-05 0)
(-8.8773963e-11 -1.7219335e-06 0)
(2.885702e-09 8.1143959e-06 0)
(-6.4628809e-10 6.1678925e-06 0)
(-8.4642146e-10 6.1685993e-06 0)
(2.9972502e-10 8.1157217e-06 0)
(-3.7131336e-09 -1.7211371e-06 0)
(1.3822626e-09 -1.256136e-05 0)
(-1.2525088e-09 -1.256172e-05 0)
(3.8691409e-09 -1.7220038e-06 0)
(-3.0928249e-10 8.1148475e-06 0)
(8.8000639e-10 6.1682303e-06 0)
(6.2533854e-10 6.1689092e-06 0)
(-2.6801045e-09 8.1161386e-06 0)
(2.8778133e-10 -1.7212385e-06 0)
(-2.9364565e-09 -1.2562019e-05 0)
(3.1021576e-09 -1.2562366e-05 0)
(-2.3250864e-10 -1.722082e-06 0)
(2.7800257e-09 8.1152922e-06 0)
(-6.5385596e-10 6.1685508e-06 0)
(-8.3580804e-10 6.169209e-06 0)
(3.9364357e-10 8.1165314e-06 0)
(-3.5685112e-09 -1.7213302e-06 0)
(1.4428954e-09 -1.2562653e-05 0)
(-1.3194713e-09 -1.2562991e-05 0)
(3.7195853e-09 -1.7221459e-06 0)
(-4.0495624e-10 8.1157087e-06 0)
(8.6908302e-10 6.1688623e-06 0)
(6.3258052e-10 6.169494e-06 0)
(-2.5822797e-09 8.1169145e-06 0)
(4.1993235e-10 -1.7214237e-06 0)
(-2.8680895e-09 -1.2563259e-05 0)
(3.0268527e-09 -1.2563585e-05 0)
(-3.6932014e-10 -1.7222175e-06 0)
(2.6797272e-09 8.1161187e-06 0)
(-6.6107172e-10 6.1691573e-06 0)
(-8.2578818e-10 6.1697693e-06 0)
(4.8267444e-10 8.1172753e-06 0)
(-3.4317724e-09 -1.7215084e-06 0)
(1.5000155e-09 -1.2563841e-05 0)
(-1.3836548e-09 -1.256416e-05 0)
(3.5774157e-09 -1.7222754e-06 0)
(-4.9595912e-10 8.1165017e-06 0)
(8.5875422e-10 6.1694437e-06 0)
(6.3948885e-10 6.1700306e-06 0)
(-2.4896409e-09 8.1176266e-06 0)
(5.4516508e-10 -1.7215943e-06 0)
(-2.8037895e-09 -1.2564399e-05 0)
(2.954992e-09 -1.2564705e-05 0)
(-4.9966031e-10 -1.7223409e-06 0)
(2.5844526e-09 8.1168787e-06 0)
(-6.6796473e-10 6.1697144e-06 0)
(-8.1632e-10 6.1702826e-06 0)
(5.6721322e-10 8.1179571e-06 0)
(-3.3022923e-09 -1.7216723e-06 0)
(1.5539671e-09 -1.2564932e-05 0)
(-1.445207e-09 -1.2565232e-05 0)
(3.4421466e-09 -1.7223932e-06 0)
(-5.8262798e-10 8.11723e-06 0)
(8.4898074e-10 6.169977e-06 0)
(6.4609583e-10 6.1705215e-06 0)
(-2.4017755e-09 8.1182781e-06 0)
(6.6407234e-10 -1.7217509e-06 0)
(-2.7431906e-09 -1.2565442e-05 0)
(2.8863908e-09 -1.2565729e-05 0)
(-6.2399333e-10 -1.7224529e-06 0)
(2.493843e-09 8.1175755e-06 0)
(-6.7456474e-10 6.1702246e-06 0)
(-8.0736229e-10 6.1707514e-06 0)