/*--------------------------------*- C++ -*----------------------------------*\
| =========                 |                                                 |
| \\      /  F ield         | OpenFOAM: The Open Source CFD Toolbox           |
|  \\    /   O peration     | Version:  5.x                                   |
|   \\  /    A nd           | Web:      www.OpenFOAM.org                      |
|    \\/     M anipulation  |                                                 |
\*---------------------------------------------------------------------------*/
FoamFile
{
    version     2.0;
    format      ascii;
    class       volVectorField;
    location    "3";
    object      U_0;
}
// * * * * * * * * * * * * * * * * * * * * * * * * * * * * * * * * * * * * * //

dimensions      [0 1 -1 0 0 0 0];

internalField   nonuniform List<vector> 
1920
(
(-0.00037668763 -0.0034628523 0)
(-0.00068709404 -0.0039251529 0)
(-0.00037368896 -0.0038939712 0)
(-0.0001173341 -0.0038905039 0)
(0.00011733442 -0.0038905039 0)
(0.00037368909 -0.0038939711 0)
(0.00068709392 -0.0039251528 0)
(0.00037668753 -0.0034628521 0)
(-0.00052010791 -0.0032076357 0)
(-0.0011328256 -0.0040335582 0)
(-0.00072317705 -0.0040869474 0)
(-0.00024537209 -0.0040893761 0)
(0.00024537267 -0.004089376 0)
(0.00072317732 -0.0040869473 0)
(0.0011328256 -0.004033558 0)
(0.00052010787 -0.0032076353 0)
(-0.00043559012 -0.002795682 0)
(-0.0011200395 -0.0040309417 0)
(-0.00080802433 -0.0042920102 0)
(-0.00029029218 -0.0043526297 0)
(0.0002902929 -0.0043526297 0)
(0.0008080247 -0.0042920101 0)
(0.0011200396 -0.0040309415 0)
(0.00043559015 -0.0027956817 0)
(-0.00032287804 -0.0023988938 0)
(-0.00094900156 -0.0039611685 0)
(-0.00075240507 -0.004473735 0)
(-0.0002827113 -0.0046283774 0)
(0.0002827121 -0.0046283774 0)
(0.00075240551 -0.004473735 0)
(0.00094900172 -0.0039611683 0)
(0.00032287812 -0.0023988937 0)
(-0.00022969726 -0.0020937173 0)
(-0.00074542708 -0.0038717576 0)
(-0.00063718466 -0.004613975 0)
(-0.00024797766 -0.0048749118 0)
(0.00024797841 -0.0048749118 0)
(0.00063718513 -0.0046139751 0)
(0.00074542732 -0.0038717575 0)
(0.00022969736 -0.0020937173 0)
(-0.00015895404 -0.0018740566 0)
(-0.00055828082 -0.0037862756 0)
(-0.00050767954 -0.0047150935 0)
(-0.00020349508 -0.0050774039 0)
(0.00020349574 -0.0050774039 0)
(0.00050768001 -0.0047150936 0)
(0.00055828112 -0.0037862754 0)
(0.00015895415 -0.0018740566 0)
(-0.00010735855 -0.0017186254 0)
(-0.00040398069 -0.0037131414 0)
(-0.0003873464 -0.0047853838 0)
(-0.00015905865 -0.0052354369 0)
(0.00015905917 -0.0052354369 0)
(0.00038734685 -0.0047853838 0)
(0.00040398104 -0.0037131412 0)
(0.00010735868 -0.0017186253 0)
(-7.0999134e-05 -0.0016104001 0)
(-0.00028477378 -0.0036545026 0)
(-0.00028574516 -0.0048329836 0)
(-0.00011993318 -0.005354308 0)
(0.00011993355 -0.005354308 0)
(0.00028574555 -0.0048329835 0)
(0.00028477416 -0.0036545024 0)
(7.0999273e-05 -0.0016104 0)
(-4.6166899e-05 -0.0015365192 0)
(-0.00019639277 -0.0036096588 0)
(-0.00020525416 -0.0048645083 0)
(-8.770918e-05 -0.0054410903 0)
(8.7709396e-05 -0.0054410902 0)
(0.00020525449 -0.0048645081 0)
(0.00019639315 -0.0036096586 0)
(4.6167052e-05 -0.0015365192 0)
(-2.9523388e-05 -0.0014870185 0)
(-0.00013295521 -0.0035766026 0)
(-0.00014403681 -0.0048849688 0)
(-6.2640065e-05 -0.0055028735 0)
(6.2640152e-05 -0.0055028735 0)
(0.00014403707 -0.0048849685 0)
(0.00013295557 -0.0035766023 0)
(2.9523536e-05 -0.0014870184 0)
(-1.8595815e-05 -0.0014544039 0)
(-8.8422091e-05 -0.003552933 0)
(-9.9100323e-05 -0.0048980038 0)
(-4.3714303e-05 -0.0055459093 0)
(4.3714275e-05 -0.0055459091 0)
(9.9100502e-05 -0.0048980035 0)
(8.8422421e-05 -0.0035529326 0)
(1.8595964e-05 -0.0014544037 0)
(-1.1501123e-05 -0.0014332506 0)
(-5.7856639e-05 -0.0035363943 0)
(-6.6878602e-05 -0.0049061517 0)
(-2.9956582e-05 -0.0055753051 0)
(2.9956462e-05 -0.005575305 0)
(6.6878711e-05 -0.0049061513 0)
(5.7856928e-05 -0.0035363939 0)
(1.150126e-05 -0.0014332505 0)
(-6.9881837e-06 -0.001419753 0)
(-3.720024e-05 -0.003525084 0)
(-4.4359584e-05 -0.0049111457 0)
(-2.0116025e-05 -0.0055950173 0)
(2.0115836e-05 -0.0055950171 0)
(4.435962e-05 -0.0049111453 0)
(3.7200479e-05 -0.0035250836 0)
(6.9883071e-06 -0.0014197529 0)
(-4.1458042e-06 -0.0014112877 0)
(-2.3511468e-05 -0.0035175046 0)
(-2.8878001e-05 -0.0049141366 0)
(-1.3288786e-05 -0.005608001 0)
(1.3288537e-05 -0.0056080009 0)
(2.8877986e-05 -0.0049141362 0)
(2.3511651e-05 -0.0035175042 0)
(4.1459162e-06 -0.0014112876 0)
(-2.3974293e-06 -0.0014060815 0)
(-1.4560961e-05 -0.0035125234 0)
(-1.8465304e-05 -0.0049158811 0)
(-8.6013715e-06 -0.0056163973 0)
(8.6010888e-06 -0.0056163971 0)
(1.8465225e-05 -0.0049158808 0)
(1.4561099e-05 -0.0035125231 0)
(2.3975189e-06 -0.0014060814 0)
(-1.3350069e-06 -0.0014029503 0)
(-8.8228024e-06 -0.0035093158 0)
(-1.1560664e-05 -0.0049168626 0)
(-5.4695807e-06 -0.0056217233 0)
(5.4692624e-06 -0.0056217233 0)
(1.1560556e-05 -0.0049168623 0)
(8.8228838e-06 -0.0035093156 0)
(1.3350895e-06 -0.0014029502 0)
(-7.0841505e-07 -0.001401119 0)
(-5.1980435e-06 -0.0035072932 0)
(-7.0778803e-06 -0.0049173899 0)
(-3.3974367e-06 -0.0056250296 0)
(3.3971062e-06 -0.0056250295 0)
(7.0777225e-06 -0.0049173897 0)
(5.1980931e-06 -0.003507293 0)
(7.0847339e-07 -0.0014011189 0)
(-3.4669401e-07 -0.001400085 0)
(-2.9590697e-06 -0.003506049 0)
(-4.2127028e-06 -0.0049176521 0)
(-2.0613798e-06 -0.0056270321 0)
(2.0610394e-06 -0.005627032 0)
(4.2125328e-06 -0.004917652 0)
(2.9590759e-06 -0.0035060489 0)
(3.4674992e-07 -0.001400085 0)
(-1.4675946e-07 -0.0013995301 0)
(-1.6041942e-06 -0.0035053043 0)
(-2.4229861e-06 -0.004917767 0)
(-1.2114253e-06 -0.0056282083 0)
(1.2110884e-06 -0.0056282082 0)
(2.4227909e-06 -0.0049177669 0)
(1.6041834e-06 -0.0035053042 0)
(1.4679591e-07 -0.0013995301 0)
(-4.1499182e-08 -0.001399254 0)
(-8.0844749e-07 -0.0035048749 0)
(-1.3286862e-06 -0.0049178022 0)
(-6.8506899e-07 -0.0056288728 0)
(6.84739e-07 -0.0056288728 0)
(1.3284951e-06 -0.0049178022 0)
(8.0841382e-07 -0.0035048749 0)
(4.1535559e-08 -0.001399254 0)
(9.1893728e-09 -0.0013991351 0)
(-3.5704545e-07 -0.0035046381 0)
(-6.792494e-07 -0.0049177992 0)
(-3.6600738e-07 -0.0056292276 0)
(3.6569788e-07 -0.0056292276 0)
(6.7905778e-07 -0.0049177993 0)
(3.570064e-07 -0.0035046383 0)
(-9.1641817e-09 -0.0013991352 0)
(2.9918612e-08 -0.0013990997 0)
(-1.1398591e-07 -0.0035045172 0)
(-3.0678328e-07 -0.0049177791 0)
(-1.7943668e-07 -0.0056294013 0)
(1.7915431e-07 -0.0056294014 0)
(3.0661043e-07 -0.0049177794 0)
(1.1394653e-07 -0.0035045174 0)
(-2.9893684e-08 -0.0013990998 0)
(3.4923199e-08 -0.0013991055 0)
(7.3882486e-09 -0.0035044621 0)
(-1.0408921e-07 -0.0049177549 0)
(-7.3894631e-08 -0.0056294729 0)
(7.3648616e-08 -0.0056294731 0)
(1.0393986e-07 -0.0049177551 0)
(-7.4250463e-09 -0.0035044625 0)
(-3.4900743e-08 -0.0013991056 0)
(3.2680873e-08 -0.0013991283 0)
(5.9365585e-08 -0.0035044437 0)
(-9.4422282e-10 -0.0049177313 0)
(-1.8631091e-08 -0.0056294907 0)
(1.8435592e-08 -0.0056294908 0)
(8.2472163e-10 -0.0049177317 0)
(-5.9383236e-08 -0.0035044441 0)
(-3.2660419e-08 -0.0013991285 0)
(2.7276559e-08 -0.0013991559 0)
(7.5063518e-08 -0.0035044433 0)
(4.3956851e-08 -0.0049177115 0)
(8.9654431e-09 -0.0056294821 0)
(-9.1114369e-09 -0.0056294823 0)
(-4.4031593e-08 -0.0049177119 0)
(-7.5073839e-08 -0.0035044438 0)
(-2.7251626e-08 -0.0013991561 0)
(2.1622828e-08 -0.0013991818 0)
(7.175515e-08 -0.0035044513 0)
(5.8976747e-08 -0.0049176954 0)
(1.8959956e-08 -0.0056294632 0)
(-1.90421e-08 -0.0056294634 0)
(-5.9014661e-08 -0.004917696 0)
(-7.1733564e-08 -0.0035044518 0)
(-2.1602004e-08 -0.001399182 0)
(1.6070617e-08 -0.0013992037 0)
(6.1732024e-08 -0.0035044617 0)
(5.7057061e-08 -0.0049176834 0)
(2.208117e-08 -0.005629442 0)
(-2.2105149e-08 -0.0056294422 0)
(-5.7039482e-08 -0.0049176839 0)
(-6.1701755e-08 -0.0035044623 0)
(-1.6041282e-08 -0.001399204 0)
(1.1877039e-08 -0.001399221 0)
(4.8618507e-08 -0.003504472 0)
(4.9894594e-08 -0.0049176744 0)
(1.9345887e-08 -0.0056294226 0)
(-1.9300633e-08 -0.0056294228 0)
(-4.9838418e-08 -0.004917675 0)
(-4.8551273e-08 -0.0035044726 0)
(-1.1853415e-08 -0.0013992213 0)
(8.1655609e-09 -0.001399234 0)
(3.7315335e-08 -0.0035044807 0)
(3.9137361e-08 -0.004917668 0)
(1.6949962e-08 -0.0056294064 0)
(-1.6847133e-08 -0.0056294067 0)
(-3.9024932e-08 -0.0049176686 0)
(-3.7240666e-08 -0.0035044813 0)
(-8.1321954e-09 -0.0013992343 0)
(5.8336995e-09 -0.0013992434 0)
(2.6657131e-08 -0.0035044876 0)
(3.0416437e-08 -0.0049176635 0)
(1.2305358e-08 -0.0056293938 0)
(-1.2138027e-08 -0.005629394 0)
(-3.0269551e-08 -0.0049176641 0)
(-2.6547356e-08 -0.0035044882 0)
(-5.806759e-09 -0.0013992437 0)
(3.6934097e-09 -0.00139925 0)
(1.9270136e-08 -0.0035044928 0)
(2.1364453e-08 -0.0049176604 0)
(1.0020944e-08 -0.0056293843 0)
(-9.804911e-09 -0.0056293846 0)
(-2.1169255e-08 -0.004917661 0)
(-1.9156012e-08 -0.0035044934 0)
(-3.657593e-09 -0.0013992503 0)
(2.637998e-09 -0.0013992545 0)
(1.2608475e-08 -0.0035044965 0)
(1.5672205e-08 -0.0049176583 0)
(6.2688644e-09 -0.0056293776 0)
(-6.0016112e-09 -0.0056293778 0)
(-1.5451256e-08 -0.0049176589 0)
(-1.2465941e-08 -0.0035044971 0)
(-2.608474e-09 -0.0013992548 0)
(1.4647239e-09 -0.0013992574 0)
(8.7779763e-09 -0.003504499 0)
(9.8156752e-09 -0.0049176568 0)
(5.1520959e-09 -0.0056293729 0)
(-4.8511582e-09 -0.0056293731 0)
(-9.560088e-09 -0.0049176574 0)
(-8.6352075e-09 -0.0035044996 0)
(-1.4283776e-09 -0.0013992576 0)
(1.1193953e-09 -0.0013992592 0)
(5.023812e-09 -0.0035045005 0)
(6.9926817e-09 -0.0049176559 0)
(2.539966e-09 -0.0056293697 0)
(-2.2060589e-09 -0.00562937 0)
(-6.7226594e-09 -0.0049176564 0)
(-4.8617466e-09 -0.0035045011 0)
(-1.0885899e-09 -0.0013992594 0)
(4.57589e-10 -0.0013992602 0)
(3.4312673e-09 -0.0035045014 0)
(3.5190448e-09 -0.0049176553 0)
(2.3815461e-09 -0.0056293677 0)
(-2.0314197e-09 -0.0056293679 0)
(-3.2303797e-09 -0.0049176558 0)
(-3.2732005e-09 -0.003504502 0)
(-4.2241333e-10 -0.0013992604 0)
(4.5995791e-10 -0.0013992607 0)
(1.3601503e-09 -0.0035045019 0)
(2.5276543e-09 -0.0049176549 0)
(5.6645263e-10 -0.0056293665 0)
(-2.0248011e-10 -0.0056293667 0)
(-2.2360113e-09 -0.0049176553 0)
(-1.1921208e-09 -0.0035045023 0)
(-4.2921929e-10 -0.0013992609 0)
(4.3237435e-11 -0.0013992609 0)
(9.6044656e-10 -0.003504502 0)
(4.5284952e-10 -0.0049176545 0)
(9.8244463e-10 -0.0056293659 0)
(-6.1883216e-10 -0.0056293661 0)
(-1.5767036e-10 -0.004917655 0)
(-7.9995608e-10 -0.0035045024 0)
(-1.0428943e-11 -0.0013992611 0)
(1.9835373e-10 -0.0013992609 0)
(-2.5110755e-10 -0.0035045018 0)
(4.445728e-10 -0.0049176543 0)
(-3.7531981e-10 -0.0056293656 0)
(7.360279e-10 -0.0056293658 0)
(-1.5605252e-10 -0.0049176547 0)
(4.1355086e-10 -0.0035045022 0)
(-1.6874598e-10 -0.0013992611 0)
(-1.0915503e-10 -0.0013992607 0)
(-8.4007138e-11 -0.0035045016 0)
(-9.0649184e-10 -0.0049176542 0)
(3.317415e-10 -0.0056293656 0)
(1.543013e-11 -0.0056293657 0)
(1.186452e-09 -0.0049176545 0)
(2.3659975e-10 -0.0035045019 0)
(1.3896963e-10 -0.0013992609 0)
(1.0494291e-10 -0.0013992605 0)
(-8.9303744e-10 -0.0035045012 0)
(-4.4690596e-10 -0.004917654 0)
(-7.8869339e-10 -0.0056293657 0)
(1.1206739e-09 -0.0056293659 0)
(7.1359397e-10 -0.0049176543 0)
(1.0417005e-09 -0.0035045015 0)
(-7.7104725e-11 -0.0013992606 0)
(-1.5597907e-10 -0.0013992602 0)
(-4.8418623e-10 -0.0035045008 0)
(-1.4528848e-09 -0.0049176539 0)
(4.5398301e-11 -0.005629366 0)
(2.6453232e-10 -0.0056293661 0)
(1.7029021e-09 -0.0049176542 0)
(6.2212513e-10 -0.003504501 0)
(1.8267691e-10 -0.0013992603 0)
(7.5950822e-11 -0.0013992599 0)
(-1.1159596e-09 -0.0035045003 0)
(-7.9538459e-10 -0.0049176538 0)
(-9.5663246e-10 -0.0056293662 0)
(1.2441605e-09 -0.0056293663 0)
(1.028888e-09 -0.004917654 0)
(1.2463567e-09 -0.0035045005 0)
(-5.0096851e-11 -0.00139926 0)
(-1.6465139e-10 -0.0013992595 0)
(-6.1785921e-10 -0.0035044998 0)
(-1.6441995e-09 -0.0049176537 0)
(-7.8453501e-11 -0.0056293666 0)
(3.4012206e-10 -0.0056293666 0)
(1.8568538e-09 -0.0049176539 0)
(7.3799535e-10 -0.0035045 0)
(1.8847786e-10 -0.0013992596 0)
(6.8600918e-11 -0.0013992592 0)
(-1.1732693e-09 -0.0035044993 0)
(-9.1633383e-10 -0.0049176536 0)
(-1.0189804e-09 -0.0056293669 0)
(1.2556545e-09 -0.005629367 0)
(1.1122494e-09 -0.0049176537 0)
(1.284208e-09 -0.0035044995 0)
(-4.4613147e-11 -0.0013992593 0)
(-1.615735e-10 -0.0013992588 0)
(-6.5136976e-10 -0.0035044988 0)
(-1.6925438e-09 -0.0049176534 0)
(-1.3459663e-10 -0.0056293673 0)
(3.4551811e-10 -0.0056293673 0)
(1.8666465e-09 -0.0049176536 0)
(7.5353949e-10 -0.0035044989 0)
(1.8298921e-10 -0.0013992589 0)
(6.7034033e-11 -0.0013992585 0)
(-1.1715244e-09 -0.0035044983 0)
(-9.4941525e-10 -0.0049176533 0)
(-1.0380709e-09 -0.0056293676 0)
(1.2249265e-09 -0.0056293677 0)
(1.1088059e-09 -0.0049176535 0)
(1.2642573e-09 -0.0035044984 0)
(-4.4587619e-11 -0.0013992586 0)
(-1.5590585e-10 -0.0013992582 0)
(-6.5140313e-10 -0.0035044978 0)
(-1.687593e-09 -0.0049176532 0)
(-1.6327304e-10 -0.005629368 0)
(3.272023e-10 -0.005629368 0)
(1.8264072e-09 -0.0049176533 0)
(7.3749352e-10 -0.0035044979 0)
(1.7545013e-10 -0.0013992582 0)
(6.6202944e-11 -0.0013992578 0)
(-1.1512721e-09 -0.0035044972 0)
(-9.5091745e-10 -0.0049176531 0)
(-1.0390943e-09 -0.0056293683 0)
(1.1820937e-09 -0.0056293683 0)
(1.0784034e-09 -0.0049176532 0)
(1.2285232e-09 -0.0035044974 0)
(-4.4888014e-11 -0.0013992579 0)
(-1.502643e-10 -0.0013992575 0)
(-6.4180878e-10 -0.0035044968 0)
(-1.6637408e-09 -0.004917653 0)
(-1.7990601e-10 -0.0056293686 0)
(3.0428965e-10 -0.0056293687 0)
(1.7730747e-09 -0.0049176531 0)
(7.1480092e-10 -0.0035044968 0)
(1.6845301e-10 -0.0013992575 0)
(6.4929739e-11 -0.0013992572 0)
(-1.1260416e-09 -0.0035044962 0)
(-9.4119206e-10 -0.0049176529 0)
(-1.0312995e-09 -0.005629369 0)
(1.1388958e-09 -0.005629369 0)
(1.0431293e-09 -0.004917653 0)
(1.1911337e-09 -0.0035044963 0)
(-4.4345557e-11 -0.0013992572 0)
(-1.451044e-10 -0.0013992569 0)
(-6.2978315e-10 -0.0035044958 0)
(-1.6327308e-09 -0.0049176527 0)
(-1.8984934e-10 -0.0056293693 0)
(2.8359647e-10 -0.0056293693 0)
(1.7193038e-09 -0.0049176528 0)
(6.9296196e-10 -0.0035044958 0)
(1.6236689e-10 -0.0013992569 0)
(6.3190743e-11 -0.0013992565 0)
(-1.099482e-09 -0.0035044953 0)
(-9.26638e-10 -0.0049176526 0)
(-1.0178991e-09 -0.0056293696 0)
(1.0990963e-09 -0.0056293697 0)
(1.0096886e-09 -0.0049176527 0)
(1.1556878e-09 -0.0035044954 0)
(-4.3004968e-11 -0.0013992566 0)
(-1.4033131e-10 -0.0013992562 0)
(-6.168659e-10 -0.0035044948 0)
(-1.598052e-09 -0.0049176525 0)
(-1.949262e-10 -0.0056293699 0)
(2.6678111e-10 -0.00562937 0)
(1.6683274e-09 -0.0049176526 0)
(6.7327867e-10 -0.0035044949 0)
(1.5698283e-10 -0.0013992563 0)
(6.1182928e-11 -0.0013992559 0)
(-1.0721955e-09 -0.0035044943 0)
(-9.0894782e-10 -0.0049176524 0)
(-1.000188e-09 -0.0056293702 0)
(1.0632497e-09 -0.0056293703 0)
(9.7914615e-10 -0.0049176525 0)
(1.1223422e-09 -0.0035044944 0)
(-4.1157678e-11 -0.0013992559 0)
(-1.3580128e-10 -0.0013992556 0)
(-6.0308642e-10 -0.0035044938 0)
(-1.5606672e-09 -0.0049176523 0)
(-1.9597651e-10 -0.0056293706 0)
(2.5354326e-10 -0.0056293706 0)
(1.6201726e-09 -0.0049176524 0)
(6.5524863e-10 -0.0035044939 0)
(1.5204213e-10 -0.0013992556 0)
(5.9067538e-11 -0.0013992553 0)
(-1.044137e-09 -0.0035044934 0)
(-8.8856895e-10 -0.0049176522 0)
(-9.7900819e-10 -0.0056293709 0)
(1.0307824e-09 -0.0056293709 0)
(9.508489e-10 -0.0049176523 0)
(1.0904337e-09 -0.0035044935 0)
(-3.9060496e-11 -0.0013992553 0)
(-1.3143008e-10 -0.001399255 0)
(-5.8829619e-10 -0.0035044929 0)
(-1.5209965e-09 -0.004917652 0)
(-1.9367029e-10 -0.0056293712 0)
(2.4299016e-10 -0.0056293712 0)
(1.5740515e-09 -0.0049176522 0)
(6.3809493e-10 -0.003504493 0)
(1.4736127e-10 -0.001399255 0)
(5.6936653e-11 -0.0013992547 0)
(-1.0152913e-09 -0.0035044924 0)
(-8.6578842e-10 -0.0049176519 0)
(-9.5514143e-10 -0.0056293715 0)
(1.0008562e-09 -0.0056293715 0)
(9.2385955e-10 -0.0049176521 0)
(1.0593149e-09 -0.0035044926 0)
(-3.6887194e-11 -0.0013992548 0)
(-1.2718736e-10 -0.0013992544 0)
(-5.7247368e-10 -0.003504492 0)
(-1.4794524e-09 -0.0049176518 0)
(-1.8866922e-10 -0.0056293718 0)
(2.3418737e-10 -0.0056293718 0)
(1.5291764e-09 -0.0049176519 0)
(6.21201e-10 -0.0035044921 0)
(1.4283409e-10 -0.0013992545 0)
(5.4834591e-11 -0.0013992541 0)
(-9.8577117e-10 -0.0035044916 0)
(-8.4095955e-10 -0.0049176517 0)
(-9.2933907e-10 -0.0056293721 0)
(9.7270311e-10 -0.0056293721 0)
(8.9740259e-10 -0.0049176518 0)
(1.0285468e-09 -0.0035044917 0)
(-3.4743271e-11 -0.0013992542 0)
(-1.2307173e-10 -0.0013992538 0)
(-5.5571874e-10 -0.0035044911 0)
(-1.4364997e-09 -0.0049176516 0)
(-1.8159882e-10 -0.0056293724 0)
(2.2635606e-10 -0.0056293724 0)
(1.4849769e-09 -0.0049176517 0)
(6.0417295e-10 -0.0035044913 0)
(1.384077e-10 -0.0013992539 0)
(5.2781428e-11 -0.0013992536 0)
(-9.5576813e-10 -0.0035044907 0)
(-8.1448149e-10 -0.0049176515 0)
(-9.0227449e-10 -0.0056293726 0)
(9.4573032e-10 -0.0056293727 0)
(8.7095106e-10 -0.0049176517 0)
(9.9788898e-10 -0.0035044909 0)
(-3.2689451e-11 -0.0013992536 0)
(-1.1909198e-10 -0.0013992533 0)
(-5.3819091e-10 -0.0035044903 0)
(-1.3926063e-09 -0.0049176514 0)
(-1.7300152e-10 -0.0056293729 0)
(2.1891994e-10 -0.005629373 0)
(1.4411115e-09 -0.0049176516 0)
(5.8679904e-10 -0.0035044904 0)
(1.340607e-10 -0.0013992534 0)
(5.0787733e-11 -0.001399253 0)
(-9.2549658e-10 -0.0035044899 0)
(-7.8674508e-10 -0.0049176513 0)
(-8.7450836e-10 -0.0056293732 0)
(9.1952993e-10 -0.0056293733 0)
(8.4419831e-10 -0.0049176515 0)
(9.67247e-10 -0.00350449 0)
(-3.075886e-11 -0.0013992531 0)
(-1.1525759e-10 -0.0013992528 0)
(-5.200622e-10 -0.0035044895 0)
(-1.3481993e-09 -0.0049176512 0)
(-1.6331507e-10 -0.0056293735 0)
(2.1148993e-10 -0.0056293735 0)
(1.3974205e-09 -0.0049176514 0)
(5.6899487e-10 -0.0035044896 0)
(1.2978893e-10 -0.0013992528 0)
(4.886159e-11 -0.0013992525 0)
(-8.9515988e-10 -0.0035044891 0)
(-7.5809972e-10 -0.0049176511 0)
(-8.4648259e-10 -0.0056293737 0)
(8.9385052e-10 -0.0056293738 0)
(8.1700403e-10 -0.0049176513 0)
(9.3662085e-10 -0.0035044892 0)
(-2.8968692e-11 -0.0013992526 0)
(-1.1157492e-10 -0.0013992522 0)
(-5.0149429e-10 -0.0035044887 0)
(-1.3036452e-09 -0.004917651 0)
(-1.5287647e-10 -0.005629374 0)
(2.038273e-10 -0.0056293741 0)
(1.3538725e-09 -0.0049176512 0)
(5.5075837e-10 -0.0035044889 0)
(1.2559664e-10 -0.0013992523 0)
(4.7010831e-11 -0.001399252 0)
(-8.6493809e-10 -0.0035044883 0)
(-7.2884414e-10 -0.0049176509 0)
(-8.1853386e-10 -0.0056293743 0)
(8.6855827e-10 -0.0056293743 0)
(7.8934235e-10 -0.0049176511 0)
(9.0606714e-10 -0.0035044885 0)
(-2.7326639e-11 -0.0013992521 0)
(-1.080468e-10 -0.0013992517 0)
(-4.8263149e-10 -0.0035044879 0)
(-1.2592508e-09 -0.0049176508 0)
(-1.4193966e-10 -0.0056293745 0)
(1.9580314e-10 -0.0056293746 0)
(1.3105178e-09 -0.004917651 0)
(5.3213753e-10 -0.0035044881 0)
(1.2149175e-10 -0.0013992518 0)
(4.5243183e-11 -0.0013992515 0)
(-8.34986e-10 -0.0035044876 0)
(-6.992305e-10 -0.0049176508 0)
(-7.9091477e-10 -0.0056293748 0)
(8.4359925e-10 -0.0056293748 0)
(7.6126068e-10 -0.004917651 0)
(8.7567281e-10 -0.0035044878 0)
(-2.5834782e-11 -0.0013992516 0)
(-1.0467298e-10 -0.0013992513 0)
(-4.6360087e-10 -0.0035044872 0)
(-1.2152708e-09 -0.0049176507 0)
(-1.3069623e-10 -0.005629375 0)
(1.8736355e-10 -0.0056293751 0)
(1.2674541e-09 -0.0049176509 0)
(5.1320822e-10 -0.0035044874 0)
(1.1748321e-10 -0.0013992514 0)
(4.3565691e-11 -0.001399251 0)
(-8.0543553e-10 -0.0035044868 0)
(-6.6947283e-10 -0.0049176506 0)
(-7.6381526e-10 -0.0056293753 0)
(8.189699e-10 -0.0056293753 0)
(7.3284902e-10 -0.0049176508 0)
(8.4553756e-10 -0.0035044871 0)
(-2.4491774e-11 -0.0013992511 0)
(-1.0145121e-10 -0.0013992508 0)
(-4.4451472e-10 -0.0035044865 0)
(-1.1719179e-09 -0.0049176505 0)
(-1.1929389e-10 -0.0056293755 0)
(1.7850259e-10 -0.0056293756 0)
(1.2248013e-09 -0.0049176507 0)
(4.9405943e-10 -0.0035044867 0)
(1.1357948e-10 -0.0013992509 0)
(4.1984372e-11 -0.0013992506 0)
(-7.7639934e-10 -0.0035044862 0)
(-6.3975534e-10 -0.0049176504 0)
(-7.3737967e-10 -0.0056293757 0)
(7.9469445e-10 -0.0056293758 0)
(7.0421919e-10 -0.0049176507 0)
(8.1576276e-10 -0.0035044864 0)
(-2.3294103e-11 -0.0013992507 0)
(-9.8377878e-11 -0.0013992504 0)
(-4.2547289e-10 -0.0035044858 0)
(-1.1293701e-09 -0.0049176504 0)
(-1.0785014e-10 -0.005629376 0)
(1.6924286e-10 -0.0056293761 0)
(1.1826852e-09 -0.0049176506 0)
(4.7478413e-10 -0.0035044861 0)
(1.0978808e-10 -0.0013992505 0)
(4.0503879e-11 -0.0013992502 0)
(-7.4797293e-10 -0.0035044855 0)
(-6.1023797e-10 -0.0049176503 0)
(-7.1171851e-10 -0.0056293762 0)
(7.7081027e-10 -0.0056293763 0)
(6.7549056e-10 -0.0049176505 0)
(7.8644476e-10 -0.0035044857 0)
(-2.223675e-11 -0.0013992503 0)
(-9.5448375e-11 -0.00139925 0)
(-4.0656431e-10 -0.0035044852 0)
(-1.0877765e-09 -0.0049176502 0)
(-9.6460619e-11 -0.0056293764 0)
(1.5962294e-10 -0.0056293765 0)
(1.1412275e-09 -0.0049176504 0)
(4.5547346e-10 -0.0035044854 0)
(1.0611501e-10 -0.00139925 0)
(3.9127377e-11 -0.0013992498 0)
(-7.2023668e-10 -0.0035044849 0)
(-5.810595e-10 -0.0049176502 0)
(-6.8691614e-10 -0.0056293767 0)
(7.4735925e-10 -0.0056293768 0)
(6.4678166e-10 -0.0049176504 0)
(7.5767088e-10 -0.0035044851 0)
(-2.1313806e-11 -0.0013992498 0)
(-9.2657711e-11 -0.0013992496 0)
(-3.8786745e-10 -0.0035044846 0)
(-1.0472598e-09 -0.0049176501 0)
(-8.5204065e-11 -0.0056293769 0)
(1.4969e-10 -0.005629377 0)
(1.1005398e-09 -0.0049176503 0)
(4.3621308e-10 -0.0035044848 0)
(1.0256492e-10 -0.0013992496 0)
(3.7856532e-11 -0.0013992494 0)
(-6.932564e-10 -0.0035044843 0)
(-5.5233912e-10 -0.00491765 0)
(-6.63035e-10 -0.0056293771 0)
(7.2438272e-10 -0.0056293772 0)
(6.1820486e-10 -0.0049176503 0)
(7.2951741e-10 -0.0035044845 0)
(-2.0518576e-11 -0.0013992495 0)
(-9.0000354e-11 -0.0013992492 0)
(-3.6945017e-10 -0.003504484 0)
(-1.0079184e-09 -0.00491765 0)
(-7.4144691e-11 -0.0056293773 0)
(1.3949536e-10 -0.0056293774 0)
(1.0607201e-09 -0.0049176502 0)
(4.1708129e-10 -0.0035044842 0)
(9.9141078e-11 -0.0013992493 0)
(3.6691714e-11 -0.001399249 0)
(-6.6708387e-10 -0.0035044837 0)
(-5.2417667e-10 -0.0049176499 0)
(-6.4011825e-10 -0.0056293775 0)
(7.0191912e-10 -0.0056293776 0)
(5.8986355e-10 -0.0049176501 0)
(7.0204896e-10 -0.003504484 0)
(-1.9843981e-11 -0.0013992491 0)
(-8.747068e-11 -0.0013992488 0)
(-3.5136968e-10 -0.0035044835 0)
(-9.6982736e-10 -0.0049176499 0)
(-6.3333264e-11 -0.0056293777 0)
(1.290918e-10 -0.0056293778 0)
(1.0218525e-09 -0.0049176501 0)
(3.9814805e-10 -0.0035044837 0)
(9.58454e-11 -0.0013992489 0)
(3.5632169e-11 -0.0013992486 0)
(-6.4175721e-10 -0.0035044832 0)
(-4.9665332e-10 -0.0049176498 0)
(-6.1819157e-10 -0.0056293779 0)
(6.8000295e-10 -0.005629378 0)
(5.6185075e-10 -0.00491765 0)
(6.753183e-10 -0.0035044834 0)
(-1.928261e-11 -0.0013992487 0)
(-8.5062727e-11 -0.0013992485 0)
(-3.3367259e-10 -0.0035044829 0)
(-9.3303946e-10 -0.0049176498 0)
(-5.2808133e-11 -0.0056293781 0)
(1.1853217e-10 -0.0056293782 0)
(9.8400618e-10 -0.00491765 0)
(3.7947458e-10 -0.0035044832 0)
(9.2678701e-11 -0.0013992485 0)
(3.4676253e-11 -0.0013992483 0)
(-6.1730171e-10 -0.0035044827 0)
(-4.6983181e-10 -0.0049176497 0)
(-5.9726473e-10 -0.0056293783 0)
(6.5866433e-10 -0.0056293784 0)
(5.3424851e-10 -0.0049176499 0)
(6.4936673e-10 -0.0035044829 0)
(-1.8826954e-11 -0.0013992484 0)
(-8.2770615e-11 -0.0013992481 0)
(-3.1639508e-10 -0.0035044824 0)
(-8.9758683e-10 -0.0049176497 0)
(-4.2595648e-11 -0.0056293785 0)
(1.0786836e-10 -0.0056293786 0)
(9.4723613e-10 -0.0049176499 0)
(3.6111328e-10 -0.0035044826 0)
(8.9640727e-11 -0.0013992482 0)
(3.3821381e-11 -0.001399248 0)
(-5.9373079e-10 -0.0035044822 0)
(-4.4375769e-10 -0.0049176496 0)
(-5.7733326e-10 -0.0056293787 0)
(6.3792908e-10 -0.0056293788 0)
(5.0712765e-10 -0.0049176498 0)
(6.2422471e-10 -0.0035044824 0)
(-1.8469393e-11 -0.001399248 0)
(-8.0588237e-11 -0.0013992478 0)
(-2.9956366e-10 -0.003504482 0)
(-8.6348296e-10 -0.0049176496 0)
(-3.2711513e-11 -0.0056293789 0)
(9.7150542e-11 -0.005629379 0)
(9.115838e-10 -0.0049176498 0)
(3.4310792e-10 -0.0035044822 0)
(8.6730324e-11 -0.0013992479 0)
(3.3064516e-11 -0.0013992477 0)
(-5.7104716e-10 -0.0035044817 0)
(-4.1846066e-10 -0.0049176496 0)
(-5.5838042e-10 -0.0056293791 0)
(6.1781854e-10 -0.0056293792 0)
(4.805479e-10 -0.0049176498 0)
(5.9991274e-10 -0.0035044819 0)
(-1.8202477e-11 -0.0013992477 0)
(-7.85097e-11 -0.0013992475 0)
(-2.8319593e-10 -0.0035044815 0)
(-8.307246e-10 -0.0049176495 0)
(-2.316216e-11 -0.0056293793 0)
(8.6426299e-11 -0.0056293793 0)
(8.7707797e-10 -0.0049176497 0)
(3.2549418e-10 -0.0035044817 0)
(8.3945543e-11 -0.0013992476 0)
(3.2401935e-11 -0.0013992474 0)
(-5.4924428e-10 -0.0035044813 0)
(-3.9395648e-10 -0.0049176495 0)
(-5.403791e-10 -0.0056293794 0)
(5.9834946e-10 -0.0056293795 0)
(4.545584e-10 -0.0049176497 0)
(5.7644208e-10 -0.0035044815 0)
(-1.8018816e-11 -0.0013992474 0)
(-7.6529157e-11 -0.0013992472 0)
(-2.6730172e-10 -0.0035044811 0)
(-7.992945e-10 -0.0049176494 0)
(-1.3945962e-11 -0.0056293796 0)
(7.5740049e-11 -0.0056293797 0)
(8.4373564e-10 -0.0049176496 0)
(3.0829989e-10 -0.0035044813 0)
(8.1283757e-11 -0.0013992473 0)
(3.1829577e-11 -0.0013992471 0)
(-5.2830773e-10 -0.0035044809 0)
(-3.7024879e-10 -0.0049176494 0)
(-5.2329424e-10 -0.0056293798 0)
(5.7953402e-10 -0.0056293798 0)
(4.2919823e-10 -0.0049176496 0)
(5.5381594e-10 -0.0035044811 0)
(-1.7911399e-11 -0.0013992472 0)
(-7.4640886e-11 -0.0013992469 0)
(-2.5188416e-10 -0.0035044807 0)
(-7.6916371e-10 -0.0049176494 0)
(-5.0552383e-12 -0.0056293799 0)
(6.5132559e-11 -0.00562938 0)
(8.1156325e-10 -0.0049176496 0)
(2.9154597e-10 -0.0035044809 0)
(7.8741775e-11 -0.001399247 0)
(3.1343058e-11 -0.0013992468 0)
(-5.0821669e-10 -0.0035044805 0)
(-3.4733144e-10 -0.0049176493 0)
(-5.0708467e-10 -0.0056293801 0)
(5.6137976e-10 -0.0056293802 0)
(4.0449683e-10 -0.0049176495 0)
(5.3203024e-10 -0.0035044807 0)
(-1.7873372e-11 -0.0013992469 0)
(-7.2839433e-11 -0.0013992467 0)
(-2.3694079e-10 -0.0035044803 0)
(-7.4029429e-10 -0.0049176493 0)
(3.5223885e-12 -0.0056293803 0)
(5.4640199e-11 -0.0056293803 0)
(7.805577e-10 -0.0049176495 0)
(2.7524683e-10 -0.0035044805 0)
(7.6315872e-11 -0.0013992468 0)
(3.093776e-11 -0.0013992466 0)
(-4.8894549e-10 -0.0035044801 0)
(-3.2519026e-10 -0.0049176493 0)
(-4.9170533e-10 -0.0056293804 0)
(5.4388966e-10 -0.0056293805 0)
(3.8047502e-10 -0.0049176495 0)
(5.1107484e-10 -0.0035044803 0)
(-1.7898397e-11 -0.0013992466 0)
(-7.1119675e-11 -0.0013992464 0)
(-2.2246494e-10 -0.0035044799 0)
(-7.1264139e-10 -0.0049176493 0)
(1.1802528e-11 -0.0056293806 0)
(4.4295096e-11 -0.0056293806 0)
(7.5070769e-10 -0.0049176494 0)
(2.5941125e-10 -0.0035044801 0)
(7.4002106e-11 -0.0013992465 0)
(3.0608893e-11 -0.0013992463 0)
(-4.7046477e-10 -0.0035044797 0)
(-3.0380541e-10 -0.0049176492 0)
(-4.7710874e-10 -0.0056293807 0)
(5.2706258e-10 -0.0056293808 0)
(3.5714581e-10 -0.0049176494 0)
(4.9093441e-10 -0.0035044799 0)
(-1.7980347e-11 -0.0013992464 0)
(-6.9476525e-11 -0.0013992462 0)
(-2.0844654e-10 -0.0035044796 0)
(-6.8615548e-10 -0.0049176492 0)
(1.9802452e-11 -0.0056293809 0)
(3.4124935e-11 -0.0056293809 0)
(7.2199479e-10 -0.0049176494 0)
(2.440431e-10 -0.0035044797 0)
(7.1796067e-11 -0.0013992463 0)
(3.0351582e-11 -0.0013992461 0)
(-4.5274263e-10 -0.0035044794 0)
(-2.8315254e-10 -0.0049176492 0)
(-4.6324655e-10 -0.005629381 0)
(5.1089305e-10 -0.0056293811 0)
(3.3451544e-10 -0.0049176493 0)
(4.7158923e-10 -0.0035044796 0)
(-1.81136e-11 -0.0013992461 0)
(-6.7905411e-11 -0.001399246 0)
(-1.9487313e-10 -0.0035044792 0)
(-6.6078401e-10 -0.0049176492 0)
(2.7540463e-11 -0.0056293811 0)
(2.4152821e-11 -0.0056293812 0)
(6.9439456e-10 -0.0049176493 0)
(2.2914211e-10 -0.0035044794 0)
(6.9693291e-11 -0.001399246 0)
(3.0160861e-11 -0.0013992459 0)
(-4.3574595e-10 -0.0035044791 0)
(-2.6320483e-10 -0.0049176491 0)
(-4.5007074e-10 -0.0056293813 0)
(4.9537198e-10 -0.0056293813 0)
(3.1258412e-10 -0.0049176493 0)
(4.5301641e-10 -0.0035044792 0)
(-1.8292759e-11 -0.0013992459 0)
(-6.6401894e-11 -0.0013992458 0)
(-1.817308e-10 -0.0035044789 0)
(-6.3647327e-10 -0.0049176491 0)
(3.5034547e-11 -0.0056293814 0)
(1.439767e-11 -0.0056293815 0)
(6.6787789e-10 -0.0049176493 0)
(2.1470465e-10 -0.0035044791 0)
(6.7689106e-11 -0.0013992458 0)
(3.0031877e-11 -0.0013992457 0)
(-4.1944079e-10 -0.0035044788 0)
(-2.4393393e-10 -0.0049176491 0)
(-4.3753467e-10 -0.0056293815 0)
(4.8048695e-10 -0.0056293816 0)
(2.9134724e-10 -0.0049176492 0)
(4.3519053e-10 -0.0035044789 0)
(-1.851288e-11 -0.0013992457 0)
(-6.4961796e-11 -0.0013992456 0)
(-1.6900471e-10 -0.0035044786 0)
(-6.1316926e-10 -0.0049176491 0)
(4.2301942e-11 -0.0056293817 0)
(4.8744428e-12 -0.0056293817 0)
(6.4241194e-10 -0.0049176492 0)
(2.0072431e-10 -0.0035044788 0)
(6.5778822e-11 -0.0013992456 0)
(2.9959683e-11 -0.0013992455 0)
(-4.0379335e-10 -0.0035044785 0)
(-2.2531107e-10 -0.0049176491 0)
(-4.2559361e-10 -0.0056293818 0)
(4.6622267e-10 -0.0056293818 0)
(2.7079605e-10 -0.0049176492 0)
(4.1808438e-10 -0.0035044786 0)
(-1.8769335e-11 -0.0013992455 0)
(-6.3581342e-11 -0.0013992454 0)
(-1.566797e-10 -0.0035044784 0)
(-5.9081906e-10 -0.004917649 0)
(4.9358619e-11 -0.0056293819 0)
(-4.4054877e-12 -0.005629382 0)
(6.1796113e-10 -0.0049176492 0)
(1.8719263e-10 -0.0035044785 0)
(6.3957644e-11 -0.0013992454 0)
(2.993959e-11 -0.0013992453 0)
(-3.8877057e-10 -0.0035044782 0)
(-2.0730801e-10 -0.004917649 0)
(-4.1420538e-10 -0.005629382 0)
(4.5256156e-10 -0.0056293821 0)
(2.5091881e-10 -0.0049176492 0)
(4.0166964e-10 -0.0035044784 0)
(-1.9057891e-11 -0.0013992453 0)
(-6.2256775e-11 -0.0013992452 0)
(-1.4474082e-10 -0.0035044781 0)
(-5.6937134e-10 -0.004917649 0)
(5.621883e-11 -0.0056293821 0)
(-1.3433804e-11 -0.0056293822 0)
(5.9448819e-10 -0.0049176491 0)
(1.7409959e-10 -0.0035044782 0)
(6.2220868e-11 -0.0013992452 0)
(2.9966871e-11 -0.0013992451 0)
(-3.7434044e-10 -0.003504478 0)
(-1.8989751e-10 -0.004917649 0)
(-4.0333043e-10 -0.0056293823 0)
(4.3948401e-10 -0.0056293823 0)
(2.317015e-10 -0.0049176491 0)
(3.8591765e-10 -0.0035044781 0)
(-1.9374499e-11 -0.0013992451 0)
(-6.0984809e-11 -0.001399245 0)
(-1.3317368e-10 -0.0035044778 0)
(-5.4877715e-10 -0.004917649 0)
(6.2895133e-11 -0.0056293824 0)
(-2.2204921e-11 -0.0056293824 0)
(5.719549e-10 -0.0049176491 0)
(1.6143432e-10 -0.003504478 0)