/*--------------------------------*- C++ -*----------------------------------*\
| =========                 |                                                 |
| \\      /  F ield         | OpenFOAM: The Open Source CFD Toolbox           |
|  \\    /   O peration     | Version:  5.x                                   |
|   \\  /    A nd           | Web:      www.OpenFOAM.org                      |
|    \\/     M anipulation  |                                                 |
\*---------------------------------------------------------------------------*/
FoamFile
{
    version     2.0;
    format      ascii;
    class       volScalarField;
    location    "4";
    object      p;
}
// * * * * * * * * * * * * * * * * * * * * * * * * * * * * * * * * * * * * * //

dimensions      [0 2 -2 0 0 0 0];

internalField   nonuniform List<scalar> 
1920
(
-6027.3851
-6027.3918
-6027.3775
-6027.3628
-6027.3628
-6027.3775
-6027.3918
-6027.3851
-6027.3805
-6027.3872
-6027.3796
-6027.3698
-6027.3697
-6027.3796
-6027.3872
-6027.3806
-6027.3767
-6027.3837
-6027.3824
-6027.3774
-6027.3774
-6027.3824
-6027.3837
-6027.3767
-6027.3743
-6027.383
-6027.3858
-6027.384
-6027.384
-6027.3858
-6027.383
-6027.3743
-6027.3748
-6027.3847
-6027.39
-6027.3901
-6027.3901
-6027.39
-6027.3847
-6027.3748
-6027.3778
-6027.3885
-6027.3952
-6027.3965
-6027.3965
-6027.3952
-6027.3885
-6027.3778
-6027.3832
-6027.394
-6027.4016
-6027.4035
-6027.4035
-6027.4016
-6027.394
-6027.3832
-6027.3907
-6027.4013
-6027.4088
-6027.4113
-6027.4113
-6027.4088
-6027.4013
-6027.3907
-6027.4001
-6027.4099
-6027.4172
-6027.4198
-6027.4198
-6027.4172
-6027.4099
-6027.4001
-6027.4109
-6027.4198
-6027.4265
-6027.429
-6027.429
-6027.4265
-6027.4198
-6027.4109
-6027.4229
-6027.4307
-6027.4366
-6027.4389
-6027.4389
-6027.4366
-6027.4307
-6027.4229
-6027.4358
-6027.4424
-6027.4474
-6027.4495
-6027.4495
-6027.4474
-6027.4424
-6027.4358
-6027.4492
-6027.4546
-6027.4589
-6027.4607
-6027.4607
-6027.4589
-6027.4546
-6027.4493
-6027.463
-6027.4673
-6027.4707
-6027.4723
-6027.4723
-6027.4707
-6027.4673
-6027.463
-6027.477
-6027.4803
-6027.483
-6027.4843
-6027.4843
-6027.483
-6027.4803
-6027.477
-6027.491
-6027.4935
-6027.4956
-6027.4966
-6027.4966
-6027.4956
-6027.4935
-6027.491
-6027.505
-6027.5068
-6027.5083
-6027.5091
-6027.5091
-6027.5083
-6027.5068
-6027.505
-6027.5189
-6027.5201
-6027.5213
-6027.5218
-6027.5219
-6027.5213
-6027.5201
-6027.5189
-6027.5326
-6027.5335
-6027.5343
-6027.5347
-6027.5347
-6027.5343
-6027.5335
-6027.5326
-6027.5463
-6027.5468
-6027.5474
-6027.5477
-6027.5477
-6027.5474
-6027.5468
-6027.5463
-6027.5598
-6027.5601
-6027.5605
-6027.5607
-6027.5607
-6027.5605
-6027.5601
-6027.5598
-6027.5732
-6027.5734
-6027.5736
-6027.5738
-6027.5738
-6027.5737
-6027.5734
-6027.5732
-6027.5865
-6027.5867
-6027.5868
-6027.5869
-6027.5869
-6027.5868
-6027.5867
-6027.5866
-6027.5998
-6027.5999
-6027.6
-6027.6001
-6027.6001
-6027.6
-6027.5999
-6027.5998
-6027.6131
-6027.6131
-6027.6132
-6027.6132
-6027.6132
-6027.6132
-6027.6131
-6027.6131
-6027.6263
-6027.6263
-6027.6263
-6027.6264
-6027.6264
-6027.6263
-6027.6263
-6027.6263
-6027.6394
-6027.6395
-6027.6395
-6027.6395
-6027.6395
-6027.6395
-6027.6395
-6027.6395
-6027.6526
-6027.6526
-6027.6527
-6027.6527
-6027.6527
-6027.6527
-6027.6526
-6027.6526
-6027.6658
-6027.6658
-6027.6658
-6027.6659
-6027.6658
-6027.6658
-6027.6658
-6027.6658
-6027.6789
-6027.679
-6027.679
-6027.679
-6027.679
-6027.679
-6027.679
-6027.6789
-6027.6921
-6027.6921
-6027.6922
-6027.6922
-6027.6922
-6027.6922
-6027.6921
-6027.6921
-6027.7053
-6027.7053
-6027.7053
-6027.7054
-6027.7054
-6027.7053
-6027.7053
-6027.7053
-6027.7184
-6027.7185
-6027.7185
-6027.7185
-6027.7185
-6027.7185
-6027.7185
-6027.7184
-6027.7316
-6027.7317
-6027.7317
-6027.7317
-6027.7317
-6027.7317
-6027.7316
-6027.7316
-6027.7448
-6027.7448
-6027.7449
-6027.7449
-6027.7449
-6027.7449
-6027.7448
-6027.7448
-6027.758
-6027.758
-6027.758
-6027.7581
-6027.7581
-6027.758
-6027.758
-6027.758
-6027.7711
-6027.7712
-6027.7712
-6027.7712
-6027.7712
-6027.7712
-6027.7712
-6027.7711
-6027.7843
-6027.7844
-6027.7844
-6027.7844
-6027.7844
-6027.7844
-6027.7844
-6027.7843
-6027.7975
-6027.7976
-6027.7976
-6027.7976
-6027.7976
-6027.7976
-6027.7976
-6027.7975
-6027.8107
-6027.8108
-6027.8108
-6027.8108
-6027.8108
-6027.8108
-6027.8107
-6027.8107
-6027.8239
-6027.824
-6027.824
-6027.824
-6027.824
-6027.824
-6027.8239
-6027.8239
-6027.8371
-6027.8371
-6027.8372
-6027.8372
-6027.8372
-6027.8372
-6027.8371
-6027.8371
-6027.8503
-6027.8504
-6027.8504
-6027.8504
-6027.8504
-6027.8504
-6027.8503
-6027.8503
-6027.8635
-6027.8635
-6027.8636
-6027.8636
-6027.8636
-6027.8636
-6027.8635
-6027.8635
-6027.8767
-6027.8768
-6027.8768
-6027.8768
-6027.8768
-6027.8768
-6027.8767
-6027.8767
-6027.8899
-6027.89
-6027.89
-6027.89
-6027.89
-6027.89
-6027.8899
-6027.8899
-6027.9031
-6027.9032
-6027.9032
-6027.9032
-6027.9032
-6027.9032
-6027.9032
-6027.9031
-6027.9163
-6027.9164
-6027.9164
-6027.9164
-6027.9164
-6027.9164
-6027.9164
-6027.9163
-6027.9295
-6027.9296
-6027.9296
-6027.9296
-6027.9296
-6027.9296
-6027.9296
-6027.9295
-6027.9428
-6027.9428
-6027.9428
-6027.9429
-6027.9429
-6027.9428
-6027.9428
-6027.9428
-6027.956
-6027.956
-6027.9561
-6027.9561
-6027.9561
-6027.9561
-6027.956
-6027.956
-6027.9692
-6027.9692
-6027.9693
-6027.9693
-6027.9693
-6027.9693
-6027.9692
-6027.9692
-6027.9824
-6027.9825
-6027.9825
-6027.9825
-6027.9825
-6027.9825
-6027.9825
-6027.9824
-6027.9957
-6027.9957
-6027.9957
-6027.9957
-6027.9957
-6027.9957
-6027.9957
-6027.9957
-6028.0089
-6028.0089
-6028.0089
-6028.009
-6028.009
-6028.0089
-6028.0089
-6028.0089
-6028.0221
-6028.0221
-6028.0222
-6028.0222
-6028.0222
-6028.0222
-6028.0221
-6028.0221
-6028.0353
-6028.0354
-6028.0354
-6028.0354
-6028.0354
-6028.0354
-6028.0354
-6028.0353
-6028.0486
-6028.0486
-6028.0486
-6028.0486
-6028.0486
-6028.0486
-6028.0486
-6028.0486
-6028.0618
-6028.0618
-6028.0619
-6028.0619
-6028.0619
-6028.0619
-6028.0618
-6028.0618
-6028.075
-6028.0751
-6028.0751
-6028.0751
-6028.0751
-6028.0751
-6028.0751
-6028.075
-6028.0883
-6028.0883
-6028.0883
-6028.0884
-6028.0884
-6028.0883
-6028.0883
-6028.0883
-6028.1015
-6028.1016
-6028.1016
-6028.1016
-6028.1016
-6028.1016
-6028.1016
-6028.1015
-6028.1148
-6028.1148
-6028.1148
-6028.1148
-6028.1148
-6028.1148
-6028.1148
-6028.1148
-6028.128
-6028.128
-6028.1281
-6028.1281
-6028.1281
-6028.1281
-6028.128
-6028.128
-6028.1412
-6028.1413
-6028.1413
-6028.1413
-6028.1413
-6028.1413
-6028.1413
-6028.1412
-6028.1545
-6028.1545
-6028.1546
-6028.1546
-6028.1546
-6028.1545
-6028.1545
-6028.1545
-6028.1677
-6028.1678
-6028.1678
-6028.1678
-6028.1678
-6028.1678
-6028.1678
-6028.1677
-6028.181
-6028.181
-6028.181
-6028.1811
-6028.1811
-6028.181
-6028.181
-6028.181
-6028.1942
-6028.1943
-6028.1943
-6028.1943
-6028.1943
-6028.1943
-6028.1943
-6028.1942
-6028.2075
-6028.2075
-6028.2075
-6028.2075
-6028.2075
-6028.2075
-6028.2075
-6028.2075
-6028.2207
-6028.2208
-6028.2208
-6028.2208
-6028.2208
-6028.2208
-6028.2208
-6028.2207
-6028.234
-6028.234
-6028.234
-6028.2341
-6028.2341
-6028.234
-6028.234
-6028.234
-6028.2473
-6028.2473
-6028.2473
-6028.2473
-6028.2473
-6028.2473
-6028.2473
-6028.2473
-6028.2605
-6028.2605
-6028.2606
-6028.2606
-6028.2606
-6028.2606
-6028.2605
-6028.2605
-6028.2738
-6028.2738
-6028.2738
-6028.2738
-6028.2738
-6028.2738
-6028.2738
-6028.2738
-6028.287
-6028.287
-6028.2871
-6028.2871
-6028.2871
-6028.2871
-6028.287
-6028.287
-6028.3003
-6028.3003
-6028.3003
-6028.3003
-6028.3003
-6028.3003
-6028.3003
-6028.3003
-6028.3135
-6028.3136
-6028.3136
-6028.3136
-6028.3136
-6028.3136
-6028.3136
-6028.3135
-6028.3268
-6028.3268
-6028.3268
-6028.3269
-6028.3269
-6028.3268
-6028.3268
-6028.3268
-6028.3401
-6028.3401
-6028.3401
-6028.3401
-6028.3401
-6028.3401
-6028.3401
-6028.3401
-6028.3533
-6028.3534
-6028.3534
-6028.3534
-6028.3534
-6028.3534
-6028.3534
-6028.3533
-6028.3666
-6028.3666
-6028.3666
-6028.3666
-6028.3666
-6028.3666
-6028.3666
-6028.3666
-6028.3799
-6028.3799
-6028.3799
-6028.3799
-6028.3799
-6028.3799
-6028.3799
-6028.3799
-6028.3931
-6028.3931
-6028.3932
-6028.3932
-6028.3932
-6028.3932
-6028.3931
-6028.3931
-6028.4064
-6028.4064
-6028.4064
-6028.4064
-6028.4064
-6028.4064
-6028.4064
-6028.4064
-6028.4197
-6028.4197
-6028.4197
-6028.4197
-6028.4197
-6028.4197
-6028.4197
-6028.4197
-6028.4329
-6028.4329
-6028.433
-6028.433
-6028.433
-6028.4329
-6028.4329
-6028.4329
-6028.4462
-6028.4462
-6028.4462
-6028.4462
-6028.4462
-6028.4462
-6028.4462
-6028.4462
-6028.4595
-6028.4595
-6028.4595
-6028.4595
-6028.4595
-6028.4595
-6028.4595
-6028.4595
-6028.4727
-6028.4727
-6028.4728
-6028.4728
-6028.4728
-6028.4728
-6028.4727
-6028.4727
-6028.486
-6028.486
-6028.486
-6028.486
-6028.486
-6028.486
-6028.486
-6028.486
-6028.4993
-6028.4993
-6028.4993
-6028.4993
-6028.4993
-6028.4993
-6028.4993
-6028.4993
-6028.5125
-6028.5126
-6028.5126
-6028.5126
-6028.5126
-6028.5126
-6028.5126
-6028.5125
-6028.5258
-6028.5258
-6028.5258
-6028.5258
-6028.5258
-6028.5258
-6028.5258
-6028.5258
-6028.5391
-6028.5391
-6028.5391
-6028.5391
-6028.5391
-6028.5391
-6028.5391
-6028.5391
-6028.5524
-6028.5524
-6028.5524
-6028.5524
-6028.5524
-6028.5524
-6028.5524
-6028.5524
-6028.5656
-6028.5656
-6028.5656
-6028.5656
-6028.5656
-6028.5656
-6028.5656
-6028.5656
-6028.5789
-6028.5789
-6028.5789
-6028.5789
-6028.5789
-6028.5789
-6028.5789
-6028.5789
-6028.5922
-6028.5922
-6028.5922
-6028.5922
-6028.5922
-6028.5922
-6028.5922
-6028.5922
-6028.6054
-6028.6055
-6028.6055
-6028.6055
-6028.6055
-6028.6055
-6028.6054
-6028.6054
-6028.6187
-6028.6187
-6028.6187
-6028.6187
-6028.6187
-6028.6187
-6028.6187
-6028.6187
-6028.632
-6028.632
-6028.632
-6028.632
-6028.632
-6028.632
-6028.632
-6028.632
-6028.6453
-6028.6453
-6028.6453
-6028.6453
-6028.6453
-6028.6453
-6028.6453
-6028.6453
-6028.6585
-6028.6585
-6028.6586
-6028.6586
-6028.6586
-6028.6586
-6028.6585
-6028.6585
-6028.6718
-6028.6718
-6028.6718
-6028.6718
-6028.6718
-6028.6718
-6028.6718
-6028.6718
-6028.6851
-6028.6851
-6028.6851
-6028.6851
-6028.6851
-6028.6851
-6028.6851
-6028.6851
-6028.6984
-6028.6984
-6028.6984
-6028.6984
-6028.6984
-6028.6984
-6028.6984
-6028.6984
-6028.7116
-6028.7116
-6028.7116
-6028.7117
-6028.7117
-6028.7116
-6028.7116
-6028.7116
-6028.7249
-6028.7249
-6028.7249
-6028.7249
-6028.7249
-6028.7249
-6028.7249
-6028.7249
-6028.7382
-6028.7382
-6028.7382
-6028.7382
-6028.7382
-6028.7382
-6028.7382
-6028.7382
-6028.7515
-6028.7515
-6028.7515
-6028.7515
-6028.7515
-6028.7515
-6028.7515
-6028.7515
-6028.7647
-6028.7647
-6028.7647
-6028.7647
-6028.7647
-6028.7647
-6028.7647
-6028.7647
-6028.778
-6028.778
-6028.778
-6028.778
-6028.778
-6028.778
-6028.778
-6028.778
-6028.7913
-6028.7913
-6028.7913
-6028.7913
-6028.7913
-6028.7913
-6028.7913
-6028.7913
-6028.8046
-6028.8046
-6028.8046
-6028.8046
-6028.8046
-6028.8046
-6028.8046
-6028.8046
-6028.8178
-6028.8178
-6028.8178
-6028.8178
-6028.8178
-6028.8178
-6028.8178
-6028.8178
-6028.8311
-6028.8311
-6028.8311
-6028.8311
-6028.8311
-6028.8311
-6028.8311
-6028.8311
-6028.8444
-6028.8444
-6028.8444
-6028.8444
-6028.8444
-6028.8444
-6028.8444
-6028.8444
-6028.8577
-6028.8577
-6028.8577
-6028.8577
-6028.8577
-6028.8577
-6028.8577
-6028.8577
-6028.8709
-6028.8709
-6028.871
-6028.871
-6028.871
-6028.871
-6028.8709
-6028.8709
-6028.8842
-6028.8842
-6028.8842
-6028.8842
-6028.8842
-6028.8842
-6028.8842
-6028.8842
-6028.8975
-6028.8975
-6028.8975
-6028.8975
-6028.8975
-6028.8975
-6028.8975
-6028.8975
-6028.9108
-6028.9108
-6028.9108
-6028.9108
-6028.9108
-6028.9108
-6028.9108
-6028.9108
-6028.924
-6028.924
-6028.9241
-6028.9241
-6028.9241
-6028.9241
-6028.924
-6028.924
-6028.9373
-6028.9373
-6028.9373
-6028.9373
-6028.9373
-6028.9373
-6028.9373
-6028.9373
-6028.9506
-6028.9506
-6028.9506
-6028.9506
-6028.9506
-6028.9506
-6028.9506
-6028.9506
-6028.9639
-6028.9639
-6028.9639
-6028.9639
-6028.9639
-6028.9639
-6028.9639
-6028.9639
-6028.9772
-6028.9771
-6028.9772
-6028.9772
-6028.9772
-6028.9772
-6028.9771
-6028.9771
-6028.9904
-6028.9904
-6028.9904
-6028.9904
-6028.9904
-6028.9904
-6028.9904
-6028.9904
-6029.0037
-6029.0037
-6029.0037
-6029.0037
-6029.0037
-6029.0037
-6029.0037
-6029.0037
-6029.017
-6029.017
-6029.017
-6029.017
-6029.017
-6029.017
-6029.017
-6029.017
-6029.0303
-6029.0302
-6029.0303
-6029.0303
-6029.0303
-6029.0303
-6029.0302
-6029.0303
-6029.0435
-6029.0435
-6029.0435
-6029.0435
-6029.0435
-6029.0435
-6029.0435
-6029.0435
-6029.0568
-6029.0568
-6029.0568
-6029.0568
-6029.0568
-6029.0568
-6029.0568
-6029.0568
-6029.0701
-6029.0701
-6029.0701
-6029.0701
-6029.0701
-6029.0701
-6029.0701
-6029.0701
-6029.0834
-6029.0833
-6029.0834
-6029.0834
-6029.0834
-6029.0834
-6029.0833
-6029.0834
-6029.0966
-6029.0966
-6029.0966
-6029.0966
-6029.0966
-6029.0966
-6029.0966
-6029.0966
-6029.1099
-6029.1099
-6029.1099
-6029.1099
-6029.1099
-6029.1099
-6029.1099
-6029.1099
-6029.1232
-6029.1232
-6029.1232
-6029.1232
-6029.1232
-6029.1232
-6029.1232
-6029.1232
-6029.1364
-6029.1364
-6029.1364
-6029.1364
-6029.1364
-6029.1364
-6029.1364
-6029.1364
-6029.1497
-6029.1497
-6029.1497
-6029.1497
-6029.1497
-6029.1497
-6029.1497
-6029.1497
-6029.163
-6029.163
-6029.163
-6029.163
-6029.163
-6029.163
-6029.163
-6029.163
-6029.1763
-6029.1763
-6029.1763
-6029.1763
-6029.1763
-6029.1763
-6029.1763
-6029.1763
-6029.1895
-6029.1895
-6029.1895
-6029.1895
-6029.1895
-6029.1895
-6029.1895
-6029.1895
-6029.2028
-6029.2028
-6029.2028
-6029.2028
-6029.2028
-6029.2028
-6029.2028
-6029.2028
-6029.2161
-6029.2161
-6029.2161
-6029.2161
-6029.2161
-6029.2161
-6029.2161
-6029.2161
-6029.2294
-6029.2294
-6029.2294
-6029.2294
-6029.2294
-6029.2294
-6029.2294
-6029.2294
-6029.2426
-6029.2426
-6029.2426
-6029.2426
-6029.2426
-6029.2426
-6029.2426
-6029.2426
-6029.2559
-6029.2559
-6029.2559
-6029.2559
-6029.2559
-6029.2559
-6029.2559
-6029.2559
-6029.2692
-6029.2692
-6029.2692
-6029.2692
-6029.2692
-6029.2692
-6029.2692
-6029.2692
-6029.2824
-6029.2824
-6029.2824
-6029.2824
-6029.2824
-6029.2824
-6029.2824
-6029.2824
-6029.2957
-6029.2957
-6029.2957
-6029.2957
-6029.2957
-6029.2957
-6029.2957
-6029.2957
-6029.309
-6029.309
-6029.309
-6029.309
-6029.309
-6029.309
-6029.309
-6029.309
-6029.3223
-6029.3222
-6029.3222
-6029.3222
-6029.3222
-6029.3222
-6029.3222
-6029.3223
-6029.3355
-6029.3355
-6029.3355
-6029.3355
-6029.3355
-6029.3355
-6029.3355
-6029.3355
-6029.3488
-6029.3488
-6029.3488
-6029.3488
-6029.3488
-6029.3488
-6029.3488
-6029.3488
-6029.3621
-6029.3621
-6029.3621
-6029.3621
-6029.3621
-6029.3621
-6029.3621
-6029.3621
-6029.3753
-6029.3753
-6029.3753
-6029.3753
-6029.3753
-6029.3753
-6029.3753
-6029.3753
-6029.3886
-6029.3886
-6029.3886
-6029.3886
-6029.3886
-6029.3886
-6029.3886
-6029.3886
-6029.4019
-6029.4019
-6029.4019
-6029.4019
-6029.4019
-6029.4019
-6029.4019
-6029.4019
-6029.4151
-6029.4151
-6029.4151
-6029.4151
-6029.4151
-6029.4151
-6029.4151
-6029.4151
-6029.4284
-6029.4284
-6029.4284
-6029.4284
-6029.4284
-6029.4284
-6029.4284
-6029.4284
-6029.4417
-6029.4417
-6029.4417
-6029.4417
-6029.4417
-6029.4417
-6029.4417
-6029.4417
-6029.4549
-6029.4549
-6029.4549
-6029.4549
-6029.4549
-6029.4549
-6029.4549
-6029.4549
-6029.4682
-6029.4682
-6029.4682
-6029.4682
-6029.4682
-6029.4682
-6029.4682
-6029.4682
-6029.4815
-6029.4814
-6029.4814
-6029.4814
-6029.4814
-6029.4814
-6029.4814
-6029.4815
-6029.4947
-6029.4947
-6029.4947
-6029.4947
-6029.4947
-6029.4947
-6029.4947
-6029.4947
-6029.508
-6029.508
-6029.508
-6029.508
-6029.508
-6029.508
-6029.508
-6029.508
-6029.5212
-6029.5212
-6029.5212
-6029.5212
-6029.5212
-6029.5212
-6029.5212
-6029.5212
-6029.5345
-6029.5345
-6029.5345
-6029.5345
-6029.5345
-6029.5345
-6029.5345
-6029.5345
-6029.5478
-6029.5478
-6029.5478
-6029.5478
-6029.5478
-6029.5478
-6029.5478
-6029.5478
-6029.561
-6029.561
-6029.561
-6029.561
-6029.561
-6029.561
-6029.561
-6029.561
-6029.5743
-6029.5743
-6029.5743
-6029.5743
-6029.5743
-6029.5743
-6029.5743
-6029.5743
-6029.5876
-6029.5875
-6029.5875
-6029.5875
-6029.5875
-6029.5875
-6029.5875
-6029.5875
-6029.6008
-6029.6008
-6029.6008
-6029.6008
-6029.6008
-6029.6008
-6029.6008
-6029.6008
-6029.6141
-6029.6141
-6029.6141
-6029.6141
-6029.6141
-6029.6141
-6029.6141
-6029.6141
-6029.6273
-6029.6273
-6029.6273
-6029.6273
-6029.6273
-6029.6273
-6029.6273
-6029.6273
-6029.6406
-6029.6406
-6029.6406
-6029.6406
-6029.6406
-6029.6406
-6029.6406
-6029.6406
-6029.6538
-6029.6538
-6029.6538
-6029.6538
-6029.6538
-6029.6538
-6029.6538
-6029.6538
-6029.6671
-6029.6671
-6029.6671
-6029.6671
-6029.6671
-6029.6671
-6029.6671
-6029.6671
-6029.6804
-6029.6803
-6029.6803
-6029.6803
-6029.6803
-6029.6803
-6029.6803
-6029.6803
-6029.6936
-6029.6936
-6029.6936
-6029.6936
-6029.6936
-6029.6936
-6029.6936
-6029.6936
-6029.7069
-6029.7069
-6029.7068
-6029.7068
-6029.7068
-6029.7068
-6029.7069
-6029.7069
-6029.7201
-6029.7201
-6029.7201
-6029.7201
-6029.7201
-6029.7201
-6029.7201
-6029.7201
-6029.7334
-6029.7334
-6029.7334
-6029.7334
-6029.7334
-6029.7334
-6029.7334
-6029.7334
-6029.7466
-6029.7466
-6029.7466
-6029.7466
-6029.7466
-6029.7466
-6029.7466
-6029.7466
-6029.7599
-6029.7599
-6029.7599
-6029.7599
-6029.7599
-6029.7599
-6029.7599
-6029.7599
-6029.7731
-6029.7731
-6029.7731
-6029.7731
-6029.7731
-6029.7731
-6029.7731
-6029.7731
-6029.7864
-6029.7864
-6029.7864
-6029.7864
-6029.7864
-6029.7864
-6029.7864
-6029.7864
-6029.7996
-6029.7996
-6029.7996
-6029.7996
-6029.7996
-6029.7996
-6029.7996
-6029.7996
-6029.8129
-6029.8129
-6029.8129
-6029.8129
-6029.8129
-6029.8129
-6029.8129
-6029.8129
-6029.8261
-6029.8261
-6029.8261
-6029.8261
-6029.8261
-6029.8261
-6029.8261
-6029.8261
-6029.8394
-6029.8394
-6029.8394
-6029.8394
-6029.8394
-6029.8394
-6029.8394
-6029.8394
-6029.8526
-6029.8526
-6029.8526
-6029.8526
-6029.8526
-6029.8526
-6029.8526
-6029.8526
-6029.8659
-6029.8659
-6029.8658
-6029.8658
-6029.8658
-6029.8658
-6029.8659
-6029.8659
-6029.8791
-6029.8791
-6029.8791
-6029.8791
-6029.8791
-6029.8791
-6029.8791
-6029.8791
-6029.8924
-6029.8923
-6029.8923
-6029.8923
-6029.8923
-6029.8923
-6029.8923
-6029.8924
-6029.9056
-6029.9056
-6029.9056
-6029.9056
-6029.9056
-6029.9056
-6029.9056
-6029.9056
-6029.9188
-6029.9188
-6029.9188
-6029.9188
-6029.9188
-6029.9188
-6029.9188
-6029.9188
-6029.9321
-6029.9321
-6029.9321
-6029.9321
-6029.9321
-6029.9321
-6029.9321
-6029.9321
-6029.9453
-6029.9453
-6029.9453
-6029.9453
-6029.9453
-6029.9453
-6029.9453
-6029.9453
-6029.9586
-6029.9586
-6029.9585
-6029.9585
-6029.9585
-6029.9586
-6029.9586
-6029.9586
-6029.9718
-6029.9718
-6029.9718
-6029.9718
-6029.9718
-6029.9718
-6029.9718
-6029.9718
-6029.985
-6029.985
-6029.985
-6029.985
-6029.985
-6029.985
-6029.985
-6029.9851
-6029.9983
-6029.9983
-6029.9983
-6029.9983
-6029.9983
-6029.9983
-6029.9983
-6029.9983
-6030.0115
-6030.0115
-6030.0115
-6030.0115
-6030.0115
-6030.0115
-6030.0115
-6030.0115
-6030.0247
-6030.0247
-6030.0247
-6030.0247
-6030.0247
-6030.0247
-6030.0247
-6030.0248
-6030.038
-6030.038
-6030.038
-6030.038
-6030.038
-6030.038
-6030.038
-6030.038
-6030.0512
-6030.0512
-6030.0512
-6030.0512
-6030.0512
-6030.0512
-6030.0512
-6030.0512
-6030.0644
-6030.0644
-6030.0644
-6030.0644
-6030.0644
-6030.0644
-6030.0644
-6030.0645
-6030.0777
-6030.0777
-6030.0776
-6030.0776
-6030.0776
-6030.0776
-6030.0777
-6030.0777
-6030.0909
-6030.0909
-6030.0909
-6030.0909
-6030.0909
-6030.0909
-6030.0909
-6030.0909
-6030.1041
-6030.1041
-6030.1041
-6030.1041
-6030.1041
-6030.1041
-6030.1041
-6030.1041
-6030.1173
-6030.1173
-6030.1173
-6030.1173
-6030.1173
-6030.1173
-6030.1173
-6030.1174
-6030.1306
-6030.1306
-6030.1305
-6030.1305
-6030.1305
-6030.1305
-6030.1306
-6030.1306
-6030.1438
-6030.1438
-6030.1437
-6030.1437
-6030.1437
-6030.1438
-6030.1438
-6030.1438
-6030.157
-6030.157
-6030.157
-6030.1569
-6030.1569
-6030.157
-6030.157
-6030.157
-6030.1702
-6030.1702
-6030.1702
-6030.1702
-6030.1702
-6030.1702
-6030.1702
-6030.1703
-6030.1835
-6030.1834
-6030.1834
-6030.1834
-6030.1834
-6030.1834
-6030.1834
-6030.1835
-6030.1967
-6030.1966
-6030.1966
-6030.1966
-6030.1966
-6030.1966
-6030.1966
-6030.1967
-6030.2099
-6030.2099
-6030.2098
-6030.2097
-6030.2097
-6030.2098
-6030.2099
-6030.21
-6030.2232
-6030.2231
-6030.223
-6030.2229
-6030.2229
-6030.223
-6030.2231
-6030.2232
-6030.2365
-6030.2363
-6030.2362
-6030.2361
-6030.2361
-6030.2362
-6030.2363
-6030.2365
-6030.2498
-6030.2496
-6030.2493
-6030.2492
-6030.2492
-6030.2493
-6030.2496
-6030.2498
-6030.2631
-6030.2628
-6030.2625
-6030.2623
-6030.2623
-6030.2625
-6030.2628
-6030.2631
-6030.2765
-6030.276
-6030.2756
-6030.2754
-6030.2754
-6030.2756
-6030.276
-6030.2765
-6030.2899
-6030.2893
-6030.2887
-6030.2884
-6030.2884
-6030.2887
-6030.2893
-6030.2899
-6030.3034
-6030.3025
-6030.3018
-6030.3014
-6030.3014
-6030.3017
-6030.3025
-6030.3034
-6030.3169
-6030.3157
-6030.3147
-6030.3143
-6030.3142
-6030.3147
-6030.3157
-6030.3169
-6030.3304
-6030.3288
-6030.3276
-6030.327
-6030.327
-6030.3275
-6030.3288
-6030.3304
-6030.3439
-6030.3418
-6030.3403
-6030.3396
-6030.3396
-6030.3402
-6030.3418
-6030.3438
-6030.3573
-6030.3547
-6030.3528
-6030.3521
-6030.352
-6030.3528
-6030.3546
-6030.3572
-6030.3705
-6030.3673
-6030.3651
-6030.3643
-6030.3643
-6030.3651
-6030.3672
-6030.3703
-6030.3834
-6030.3797
-6030.3771
-6030.3763
-6030.3763
-6030.3771
-6030.3796
-6030.3832
-6030.3958
-6030.3916
-6030.3888
-6030.388
-6030.388
-6030.3888
-6030.3915
-6030.3956
-6030.4076
-6030.403
-6030.4002
-6030.3995
-6030.3995
-6030.4001
-6030.4028
-6030.4073
-6030.4184
-6030.4136
-6030.4111
-6030.4108
-6030.4108
-6030.411
-6030.4134
-6030.4182
-6030.4283
-6030.4234
-6030.4214
-6030.422
-6030.4219
-6030.4213
-6030.4232
-6030.4281
-6030.4374
-6030.4328
-6030.4312
-6030.432
-6030.432
-6030.4311
-6030.4326
-6030.4372
-6030.4451
-6030.4428
-6030.4407
-6030.4398
-6030.4397
-6030.4406
-6030.4427
-6030.445
)
;

boundaryField
{
    left
    {
        type            zeroGradient;
    }
    right
    {
        type            WKBC;
        index           0;
        value           uniform -6030.4462;
    }
    walls
    {
        type            zeroGradient;
    }
    frontAndBack
    {
        type            empty;
    }
}


// ************************************************************************* //
