/*--------------------------------*- C++ -*----------------------------------*\
| =========                 |                                                 |
| \\      /  F ield         | OpenFOAM: The Open Source CFD Toolbox           |
|  \\    /   O peration     | Version:  5.x                                   |
|   \\  /    A nd           | Web:      www.OpenFOAM.org                      |
|    \\/     M anipulation  |                                                 |
\*---------------------------------------------------------------------------*/
FoamFile
{
    version     2.0;
    format      ascii;
    class       surfaceScalarField;
    location    "4";
    object      phi_0;
}
// * * * * * * * * * * * * * * * * * * * * * * * * * * * * * * * * * * * * * //

dimensions      [0 3 -1 0 0 0 0];

internalField   nonuniform List<scalar> 
3592
(
-1.8378397e-06
-1.7475722e-05
-1.1784311e-06
-1.9972969e-05
-5.825658e-07
-1.9909424e-05
3.80705e-13
-1.9896126e-05
5.8256654e-07
-1.9896126e-05
1.178431e-06
-1.9909424e-05
1.8378393e-06
-1.9972968e-05
-1.747572e-05
-2.455082e-06
-1.5020638e-05
-2.2248764e-06
-2.0203171e-05
-1.1931069e-06
-2.0941187e-05
7.2974318e-13
-2.1089227e-05
1.1931082e-06
-2.1089227e-05
2.2248764e-06
-2.0941187e-05
2.455082e-06
-2.0203169e-05
-1.5020636e-05
-2.1447899e-06
-1.2875844e-05
-2.3663085e-06
-1.9981647e-05
-1.3757071e-06
-2.1931782e-05
9.5980635e-13
-2.246493e-05
1.3757086e-06
-2.2464929e-05
2.3663087e-06
-2.1931782e-05
2.1447902e-06
-1.9981646e-05
-1.2875843e-05
-1.6988865e-06
-1.1176953e-05
-2.1029963e-06
-1.9577531e-05
-1.3041147e-06
-2.2730657e-05
1.0697074e-12
-2.376904e-05
1.3041164e-06
-2.376904e-05
2.1029968e-06
-2.2730657e-05
1.6988868e-06
-1.9577531e-05
-1.1176953e-05
-1.2794239e-06
-9.897525e-06
-1.7146593e-06
-1.9142291e-05
-1.1176099e-06
-2.3327701e-05
1.0209454e-12
-2.4886647e-05
1.1176116e-06
-2.4886647e-05
1.71466e-06
-2.3327701e-05
1.2794244e-06
-1.914229e-05
-9.8975249e-06
-9.288752e-07
-8.9686457e-06
-1.3247516e-06
-1.8746409e-05
-8.9891521e-07
-2.3753531e-05
8.8099875e-13
-2.5785558e-05
8.9891665e-07
-2.5785558e-05
1.3247525e-06
-2.3753531e-05
9.2887579e-07
-1.8746408e-05
-8.9686455e-06
-6.5540501e-07
-8.313237e-06
-9.8475618e-07
-1.8417052e-05
-6.9113806e-07
-2.4047145e-05
6.7494989e-13
-2.6476693e-05
6.9113923e-07
-2.6476693e-05
9.8475718e-07
-2.4047144e-05
6.5540569e-07
-1.8417051e-05
-8.3132367e-06
-4.5218224e-07
-7.8610507e-06
-7.1054413e-07
-1.8158684e-05
-5.1336932e-07
-2.4244314e-05
4.8217951e-13
-2.6990058e-05
5.1337018e-07
-2.6990058e-05
7.1054517e-07
-2.4244314e-05
4.5218295e-07
-1.8158683e-05
-7.8610503e-06
-3.0611829e-07
-7.5549293e-06
-5.0044778e-07
-1.796435e-05
-3.7084071e-07
-2.4373918e-05
2.6847897e-13
-2.7360896e-05
3.7084129e-07
-2.7360895e-05
5.0044878e-07
-2.4373916e-05
3.0611902e-07
-1.7964349e-05
-7.5549287e-06
-2.0378285e-07
-7.3511429e-06
-3.4520612e-07
-1.7822922e-05
-2.6166227e-07
-2.4457457e-05
1.0505554e-13
-2.7622554e-05
2.6166257e-07
-2.7622554e-05
3.4520704e-07
-2.4457456e-05
2.0378357e-07
-1.782292e-05
-7.3511424e-06
-1.3346722e-07
-7.2176733e-06
-2.3371089e-07
-1.7722674e-05
-1.8083054e-07
-2.4510335e-05
-5.4823666e-14
-2.7803382e-05
1.8083061e-07
-2.7803381e-05
2.3371168e-07
-2.4510333e-05
1.3346789e-07
-1.7722672e-05
-7.2176726e-06
-8.6038135e-08
-7.1316324e-06
-1.5544267e-07
-1.7653265e-05
-1.2261909e-07
-2.4543155e-05
-1.686235e-13
-2.7925997e-05
1.2261895e-07
-2.7925997e-05
1.5544332e-07
-2.4543153e-05
8.6038731e-08
-1.7653264e-05
-7.1316318e-06
-5.4532133e-08
-7.0770987e-06
-1.0161182e-07
-1.7606183e-05
-8.1646626e-08
-2.4563118e-05
-2.5878925e-13
-2.8007641e-05
8.1646326e-08
-2.8007641e-05
1.0161229e-07
-2.4563116e-05
5.4532642e-08
-1.7606181e-05
-7.077098e-06
-3.3952161e-08
-7.0431444e-06
-6.5244563e-08
-1.7574887e-05
-5.339689e-08
-2.4574962e-05
-3.3124606e-13
-2.8061035e-05
5.3396467e-08
-2.8061034e-05
6.5244883e-08
-2.4574961e-05
3.395258e-08
-1.7574885e-05
-7.0431439e-06
-2.0703734e-08
-7.0224397e-06
-4.1106765e-08
-1.7554482e-05
-3.4275479e-08
-2.4581792e-05
-3.7059586e-13
-2.8095308e-05
3.4274946e-08
-2.8095308e-05
4.110693e-08
-2.4581791e-05
2.0704057e-08
-1.7554481e-05
-7.0224391e-06
-1.232553e-08
-7.0101126e-06
-2.5351713e-08
-1.7541453e-05
-2.1565719e-08
-2.4585576e-05
-4.1388862e-13
-2.8116871e-05
2.1565128e-08
-2.8116871e-05
2.5351741e-08
-2.4585574e-05
1.232577e-08
-1.7541452e-05
-7.0101122e-06
-7.1157693e-09
-7.0029963e-06
-1.5252234e-08
-1.7533315e-05
-1.3265138e-08
-2.4587562e-05
-4.1838769e-13
-2.8130134e-05
1.3264475e-08
-2.8130134e-05
1.5252148e-08
-2.4587561e-05
7.1159257e-09
-1.7533314e-05
-7.0029959e-06
-3.94645e-09
-6.9990485e-06
-8.8979767e-09
-1.7528361e-05
-7.9450403e-09
-2.4588512e-05
-4.327078e-13
-2.8138077e-05
7.9443719e-09
-2.8138076e-05
8.8977963e-09
-2.4588512e-05
3.9465479e-09
-1.7528361e-05
-6.9990484e-06
-2.0635688e-09
-6.9969846e-06
-4.9861612e-09
-1.7525438e-05
-4.6025443e-09
-2.4588895e-05
-4.178471e-13
-2.8142678e-05
4.6018492e-09
-2.8142678e-05
4.9859238e-09
-2.4588895e-05
2.0636087e-09
-1.7525438e-05
-6.9969846e-06
-9.8051805e-10
-6.9960029e-06
-2.6374951e-09
-1.7523779e-05
-2.5503993e-09
-2.458898e-05
-4.1316866e-13
-2.8145225e-05
2.5497358e-09
-2.8145226e-05
2.6372185e-09
-2.458898e-05
9.8052973e-10
-1.7523779e-05
-6.9960032e-06
-3.8274017e-10
-6.9956199e-06
-1.2715113e-09
-1.7522889e-05
-1.3240799e-09
-2.4588927e-05
-3.7847247e-13
-2.8146548e-05
1.3234383e-09
-2.8146549e-05
1.2712281e-09
-2.4588927e-05
3.8272221e-10
-1.752289e-05
-6.9956203e-06
-7.299982e-11
-6.9955458e-06
-5.0936078e-10
-1.7522451e-05
-6.161993e-10
-2.4588818e-05
-3.4806271e-13
-2.8147162e-05
6.1562841e-10
-2.8147163e-05
5.0909362e-10
-2.4588819e-05
7.2981695e-11
-1.7522452e-05
-6.9955465e-06
7.1928834e-11
-6.9956175e-06
-1.0942543e-10
-1.7522268e-05
-2.2589312e-10
-2.45887e-05
-2.9974561e-13
-2.8147387e-05
2.2539181e-10
-2.8147387e-05
1.0919311e-10
-2.4588702e-05
-7.1951938e-11
-1.752227e-05
-6.9956182e-06
1.2585673e-10
-6.9957422e-06
8.0810725e-11
-1.7522222e-05
-2.5248307e-11
-2.4588592e-05
-2.3677652e-13
-2.814741e-05
2.485218e-11
-2.8147411e-05
-8.0983552e-11
-2.4588594e-05
-1.2585898e-10
-1.7522224e-05
-6.9957433e-06
1.3363381e-10
-6.9958756e-06
1.5405275e-10
-1.7522241e-05
6.658697e-11
-2.4588504e-05
-1.7345029e-13
-2.8147342e-05
-6.6863783e-11
-2.8147343e-05
-1.5415904e-10
-2.4588507e-05
-1.3362297e-10
-1.7522244e-05
-6.9958767e-06
1.1946606e-10
-6.995994e-06
1.6689904e-10
-1.7522287e-05
9.835392e-11
-2.4588434e-05
-9.5208786e-14
-2.8147242e-05
-9.8505156e-11
-2.8147243e-05
-1.6691626e-10
-2.4588436e-05
-1.1942186e-10
-1.752229e-05
-6.9959953e-06
9.8273787e-11
-6.9960919e-06
1.5082395e-10
-1.7522339e-05
9.9906574e-11
-2.4588382e-05
-2.3782459e-14
-2.8147141e-05
-9.9913836e-11
-2.8147142e-05
-1.507626e-10
-2.4588385e-05
-9.8207639e-11
-1.7522341e-05
-6.9960933e-06
7.5791191e-11
-6.9961666e-06
1.2462106e-10
-1.7522386e-05
8.7466877e-11
-2.4588343e-05
6.3068796e-14
-2.8147052e-05
-8.7342712e-11
-2.8147053e-05
-1.2446037e-10
-2.4588346e-05
-7.5688256e-11
-1.7522389e-05
-6.9961681e-06
5.6563106e-11
-6.9962229e-06
9.656647e-11
-1.7522425e-05
7.0824724e-11
-2.4588317e-05
1.3249538e-13
-2.8146981e-05
-7.0554823e-11
-2.8146982e-05
-9.6329832e-11
-2.458832e-05
-5.6437106e-11
-1.7522428e-05
-6.9962243e-06
4.021659e-11
-6.9962621e-06
7.1931088e-11
-1.7522455e-05
5.3981139e-11
-2.4588297e-05
2.1406631e-13
-2.8146925e-05
-5.3592441e-11
-2.8146926e-05
-7.1602262e-11
-2.45883e-05
-4.0057388e-11
-1.7522458e-05
-6.9962636e-06
2.8246639e-11
-6.9962901e-06
5.1214885e-11
-1.7522477e-05
3.9619861e-11
-2.4588285e-05
2.7209791e-13
-2.8146885e-05
-3.910597e-11
-2.8146886e-05
-5.0824806e-11
-2.4588288e-05
-2.8068977e-11
-1.752248e-05
-6.9962915e-06
1.86955e-11
-6.9963077e-06
3.5564518e-11
-1.7522492e-05
2.7727338e-11
-2.4588275e-05
3.3720999e-13
-2.8146856e-05
-2.7122203e-11
-2.8146857e-05
-3.5102014e-11
-2.4588278e-05
-1.8492666e-11
-1.7522495e-05
-6.9963091e-06
1.2466056e-11
-6.9963199e-06
2.342626e-11
-1.7522503e-05
1.8875923e-11
-2.458827e-05
3.7679787e-13
-2.8146837e-05
-1.8181818e-11
-2.8146838e-05
-2.2924678e-11
-2.4588273e-05
-1.2252597e-11
-1.7522505e-05
-6.9963212e-06
7.461613e-12
-6.9963264e-06
1.50853e-11
-1.7522508e-05
1.204942e-11
-2.4588265e-05
4.1894524e-13
-2.8146824e-05
-1.1300253e-11
-2.8146825e-05
-1.45377e-11
-2.4588268e-05
-7.2328821e-12
-1.7522511e-05
-6.9963276e-06
4.662222e-12
-6.9963308e-06
8.7807891e-12
-1.7522512e-05
7.4194368e-12
-2.4588264e-05
4.3738367e-13
-2.8146816e-05
-6.6239602e-12
-2.8146817e-05
-8.2186611e-12
-2.4588266e-05
-4.4315674e-12
-1.7522514e-05
-6.9963319e-06
2.1757519e-12
-6.996332e-06
4.869781e-12
-1.7522513e-05
3.91488e-12
-2.4588261e-05
4.5530374e-13
-2.8146811e-05
-3.1013896e-12
-2.8146812e-05
-4.288557e-12
-2.4588263e-05
-1.9393799e-12
-1.7522515e-05
-6.996333e-06
1.1508071e-12
-6.996333e-06
1.8273012e-12
-1.7522513e-05
1.7783851e-12
-2.4588261e-05
4.5377986e-13
-2.814681e-05
-9.5910276e-13
-2.814681e-05
-1.2538532e-12
-2.4588263e-05
-9.2020425e-13
-1.7522515e-05
-6.9963338e-06
-9.3138818e-14
-6.9963319e-06
2.3415892e-13
-1.7522512e-05
9.416889e-14
-2.4588259e-05
4.5041856e-13
-2.8146808e-05
7.1138495e-13
-2.8146809e-05
3.3549978e-13
-2.4588261e-05
3.2173477e-13
-1.7522514e-05
-6.9963327e-06
-2.9116556e-13
-6.9963314e-06
-1.1873434e-12
-1.752251e-05
-7.5978828e-13
-2.4588259e-05
4.3312173e-13
-2.8146809e-05
1.538735e-12
-2.814681e-05
1.7322089e-12
-2.458826e-05
5.0842136e-13
-1.7522512e-05
-6.9963321e-06
-9.7404277e-13
-6.9963295e-06
-1.6868616e-12
-1.7522508e-05
-1.5529507e-12
-2.4588257e-05
4.1410777e-13
-2.8146809e-05
2.2956189e-12
-2.814681e-05
2.2116675e-12
-2.4588259e-05
1.1840998e-12
-1.752251e-05
-6.9963301e-06
-8.2227503e-13
-6.9963285e-06
-2.372764e-12
-1.7522506e-05
-1.8100458e-12
-2.4588258e-05
3.8671874e-13
-2.8146811e-05
2.5047168e-12
-2.8146812e-05
2.8623632e-12
-2.4588259e-05
1.0179264e-12
-1.7522507e-05
-6.996329e-06
-1.2705908e-12
-6.9963263e-06
-2.4009609e-12
-1.7522503e-05
-2.2037299e-12
-2.4588256e-05
3.5847572e-13
-2.8146812e-05
2.8498776e-12
-2.8146813e-05
2.8614572e-12
-2.4588257e-05
1.4564088e-12
-1.7522505e-05
-6.9963268e-06
-9.8703814e-13
-6.9963252e-06
-2.7789212e-12
-1.7522501e-05
-2.2061664e-12
-2.4588256e-05
3.2670613e-13
-2.8146815e-05
2.7939215e-12
-2.8146815e-05
3.2001454e-12
-2.4588257e-05
1.1576892e-12
-1.7522502e-05
-6.9963255e-06
-1.3434006e-12
-6.9963229e-06
-2.6224304e-12
-1.7522498e-05
-2.4336156e-12
-2.4588255e-05
2.9508382e-13
-2.8146816e-05
2.9698739e-12
-2.8146816e-05
3.0118692e-12
-2.4588256e-05
1.5036993e-12
-1.7522499e-05
-6.9963232e-06
-1.0190532e-12
-6.9963217e-06
-2.8807136e-12
-1.7522496e-05
-2.3360539e-12
-2.4588255e-05
2.6367388e-13
-2.8146818e-05
2.8126001e-12
-2.8146818e-05
3.2318915e-12
-2.4588256e-05
1.1651829e-12
-1.7522497e-05
-6.9963219e-06
-1.340075e-12
-6.9963195e-06
-2.6600807e-12
-1.7522493e-05
-2.4979369e-12
-2.4588254e-05
2.3313038e-13
-2.8146819e-05
2.9269863e-12
-2.814682e-05
2.9814826e-12
-2.4588254e-05
1.4767903e-12
-1.7522494e-05
-6.9963197e-06
-1.0092472e-12
-6.9963184e-06
-2.8741392e-12
-1.7522491e-05
-2.3639701e-12
-2.4588254e-05
2.0535462e-13
-2.8146822e-05
2.7382534e-12
-2.8146822e-05
3.1616515e-12
-2.4588255e-05
1.1338857e-12
-1.7522492e-05
-6.9963185e-06
-1.3148845e-12
-6.9963161e-06
-2.635252e-12
-1.7522488e-05
-2.499713e-12
-2.4588253e-05
1.7868992e-13
-2.8146823e-05
2.834769e-12
-2.8146823e-05
2.8978151e-12
-2.4588253e-05
1.4318273e-12
-1.7522489e-05
-6.9963163e-06
-9.888471e-13
-6.996315e-06
-2.8321304e-12
-1.7522486e-05
-2.3529354e-12
-2.4588253e-05
1.5631414e-13
-2.8146825e-05
2.6415873e-12
-2.8146825e-05
3.0668525e-12
-2.4588253e-05
1.0962846e-12
-1.7522486e-05
-6.9963151e-06
-1.284959e-12
-6.9963128e-06
-2.5903639e-12
-1.7522483e-05
-2.4763809e-12
-2.4588251e-05
1.3481248e-13
-2.8146826e-05
2.7358893e-12
-2.8146826e-05
2.8061268e-12
-2.4588252e-05
1.3866382e-12
-1.7522484e-05
-6.996313e-06
-9.6660306e-13
-6.9963118e-06
-2.7783711e-12
-1.7522481e-05
-2.3245959e-12
-2.4588252e-05
1.1834825e-13
-2.8146828e-05
2.5471326e-12
-2.8146829e-05
2.972669e-12
-2.4588252e-05
1.061359e-12
-1.7522481e-05
-6.9963119e-06
-1.2543529e-12
-6.9963096e-06
-2.5379861e-12
-1.7522478e-05
-2.4400951e-12
-2.458825e-05
1.021451e-13
-2.8146829e-05
2.6435381e-12
-2.814683e-05
2.7192625e-12
-2.4588251e-05
1.3451195e-12
-1.7522479e-05
-6.9963098e-06
-9.4398934e-13
-6.9963086e-06
-2.7191304e-12
-1.7522476e-05
-2.2856792e-12
-2.4588251e-05
9.1234601e-14
-2.8146832e-05
2.4610386e-12
-2.8146832e-05
2.8847452e-12
-2.4588251e-05
1.0301318e-12
-1.7522477e-05
-6.9963087e-06
-1.2233556e-12
-6.9963065e-06
-2.4809817e-12
-1.7522474e-05
-2.3946187e-12
-2.4588249e-05
7.9741363e-14
-2.8146833e-05
2.5597536e-12
-2.8146833e-05
2.6387272e-12
-2.458825e-05
1.306896e-12
-1.7522474e-05
-6.9963067e-06
-9.2073688e-13
-6.9963055e-06
-2.6556253e-12
-1.7522471e-05
-2.2384568e-12
-2.4588249e-05
7.3543813e-14
-2.8146835e-05
2.3829568e-12
-2.8146835e-05
2.8024732e-12
-2.458825e-05
1.0015334e-12
-1.7522472e-05
-6.9963057e-06
-1.1916241e-12
-6.9963035e-06
-2.4198421e-12
-1.7522469e-05
-2.3415566e-12
-2.4588248e-05
6.582444e-14
-2.8146836e-05
2.4829945e-12
-2.8146836e-05
2.5628666e-12
-2.4588249e-05
1.270753e-12
-1.7522469e-05
-6.9963037e-06
-8.9650795e-13
-6.9963025e-06
-2.5881716e-12
-1.7522467e-05
-2.1842868e-12
-2.4588248e-05
6.3326949e-14
-2.8146838e-05
2.3107759e-12
-2.8146838e-05
2.7238912e-12
-2.4588249e-05
9.7433604e-13
-1.7522467e-05
-6.9963027e-06
-1.1589875e-12
-6.9963005e-06
-2.3548921e-12
-1.7522464e-05
-2.2822284e-12
-2.4588247e-05
5.8372741e-14
-2.8146839e-05
2.4110343e-12
-2.8146839e-05
2.4896993e-12
-2.4588248e-05
1.2356542e-12
-1.7522465e-05
-6.9963008e-06
-8.7121839e-13
-6.9962996e-06
-2.5172324e-12
-1.7522462e-05
-2.1245008e-12
-2.4588247e-05
5.859774e-14
-2.8146841e-05
2.2423386e-12
-2.8146841e-05
2.6472408e-12
-2.4588248e-05
9.4764094e-13
-1.7522463e-05
-6.9962998e-06
-1.1255126e-12
-6.9962976e-06
-2.2866954e-12
-1.752246e-05
-2.2179979e-12
-2.4588246e-05
5.5495262e-14
-2.8146842e-05
2.3419414e-12
-2.8146842e-05
2.4177081e-12
-2.4588246e-05
1.200925e-12
-1.7522461e-05
-6.9962979e-06
-8.4498127e-13
-6.9962967e-06
-2.4434877e-12
-1.7522458e-05
-2.0604502e-12
-2.4588246e-05
5.7612841e-14
-2.8146844e-05
2.17596e-12
-2.8146844e-05
2.571314e-12
-2.4588247e-05
9.2090119e-13
-1.7522459e-05
-6.996297e-06
-1.0914014e-12
-6.9962948e-06
-2.2159695e-12
-1.7522456e-05
-2.1501907e-12
-2.4588245e-05
5.562005e-14
-2.8146844e-05
2.2743183e-12
-2.8146845e-05
2.3459343e-12
-2.4588246e-05
1.1661977e-12
-1.7522456e-05
-6.9962952e-06
-8.1800033e-13
-6.996294e-06
-2.367695e-12
-1.7522454e-05
-1.9933871e-12
-2.4588245e-05
5.8985668e-14
-2.8146846e-05
2.1104977e-12
-2.8146847e-05
2.4954138e-12
-2.4588246e-05
8.9383693e-13
-1.7522455e-05
-6.9962943e-06
-1.0568991e-12
-6.9962921e-06
-2.1434493e-12
-1.7522451e-05
-2.0799831e-12
-2.4588244e-05
5.7547675e-14
-2.8146847e-05
2.2072761e-12
-2.8146848e-05
2.2738735e-12
-2.4588245e-05
1.1313193e-12
-1.7522452e-05
-6.9962925e-06
-7.9049666e-13
-6.9962913e-06
-2.290578e-12
-1.752245e-05
-1.9243827e-12
-2.4588244e-05
6.1694276e-14
-2.8146849e-05
2.0452723e-12
-2.814685e-05
2.4192284e-12
-2.4588245e-05
8.6634563e-13
-1.7522451e-05
-6.9962917e-06
-1.0222417e-12
-6.9962895e-06
-2.0698042e-12
-1.7522447e-05
-2.0083536e-12
-2.4588243e-05
6.0421769e-14
-2.814685e-05
2.14033e-12
-2.814685e-05
2.2013457e-12
-2.4588244e-05
1.0962724e-12
-1.7522448e-05
-6.9962899e-06
-7.6267566e-13
-6.9962888e-06
-2.2127729e-12
-1.7522446e-05
-1.8543089e-12
-2.4588243e-05
6.5029127e-14
-2.8146852e-05
1.9799514e-12
-2.8146852e-05
2.3427075e-12
-2.4588244e-05
8.3843511e-13
-1.7522447e-05
-6.9962891e-06
-9.8763797e-13
-6.996287e-06
-1.9956121e-12
-1.7522444e-05
-1.9360872e-12
-2.4588242e-05
6.3663429e-14
-2.8146853e-05
2.0732849e-12
-2.8146853e-05
2.1283824e-12
-2.4588243e-05
1.0611195e-12
-1.7522445e-05
-6.9962875e-06
-7.3471633e-13
-6.9962863e-06
-2.1348217e-12
-1.7522442e-05
-1.7838591e-12
-2.4588242e-05
6.8520421e-14
-2.8146854e-05
1.914443e-12
-2.8146855e-05
2.2659639e-12
-2.4588243e-05
8.1017741e-13
-1.7522443e-05
-6.9962867e-06
-9.5326554e-13
-6.9962846e-06
-1.921363e-12
-1.752244e-05
-1.8638068e-12
-2.4588241e-05
6.6897242e-14
-2.8146855e-05
2.0061369e-12
-2.8146856e-05
2.0551431e-12
-2.4588242e-05
1.0259659e-12
-1.7522441e-05
-6.9962851e-06
-7.0677325e-13
-6.9962839e-06
-2.0571821e-12
-1.7522438e-05
-1.7135852e-12
-2.4588241e-05
7.1868562e-14
-2.8146857e-05
1.8488058e-12
-2.8146857e-05
2.1892045e-12
-2.4588242e-05
7.816784e-13
-1.7522439e-05
-6.9962843e-06
-9.1927536e-13
-6.9962823e-06
-1.847472e-12
-1.7522436e-05
-1.7920114e-12
-2.458824e-05
6.9887375e-14
-2.8146858e-05
1.9389971e-12
-2.8146858e-05
1.9818564e-12
-2.4588241e-05
9.9093633e-13
-1.7522437e-05
-6.9962828e-06
-6.7897945e-13
-6.9962817e-06
-1.9802422e-12
-1.7522435e-05
-1.6439332e-12
-2.4588241e-05
7.4887133e-14
-2.8146859e-05
1.7831853e-12
-2.814686e-05
2.1126802e-12
-2.4588242e-05
7.5305896e-13
-1.7522436e-05
-6.9962821e-06
-8.8579574e-13
-6.99628e-06
-1.7742942e-12
-1.7522433e-05
-1.7211067e-12
-2.458824e-05
7.2488847e-14
-2.814686e-05
1.8720374e-12
-2.8146861e-05
1.9087789e-12
-2.4588241e-05
9.5615944e-13
-1.7522434e-05
-6.9962806e-06
-6.5145148e-13
-6.9962795e-06
-1.9043344e-12
-1.7522432e-05
-1.5752681e-12
-2.458824e-05
7.7462093e-14
-2.8146862e-05
1.7177687e-12
-2.8146862e-05
2.0366549e-12
-2.4588241e-05
7.2444247e-13
-1.7522433e-05
-6.9962799e-06
-8.5293619e-13
-6.9962779e-06
-1.7021355e-12
-1.752243e-05
-1.6514266e-12
-2.4588239e-05
7.4613853e-14
-2.8146862e-05
1.8054554e-12
-2.8146863e-05
1.8361714e-12
-2.458824e-05
9.2175895e-13
-1.7522431e-05
-6.9962784e-06
-6.2429015e-13
-6.9962774e-06
-1.8297435e-12
-1.7522429e-05
-1.5078923e-12
-2.4588239e-05
7.9525552e-14
-2.8146864e-05
1.6527575e-12
-2.8146865e-05
1.9613853e-12
-2.458824e-05
6.9594741e-13
-1.752243e-05
-6.9962778e-06
-8.2078902e-13
-6.9962759e-06
-1.6312584e-12
-1.7522427e-05
-1.5832463e-12
-2.4588238e-05
7.6212179e-14
-2.8146865e-05
1.7394523e-12
-2.8146865e-05
1.7642825e-12
-2.4588239e-05
8.8784848e-13
-1.7522428e-05
-6.9962764e-06
-5.9758345e-13
-6.9962754e-06
-1.7567108e-12
-1.7522426e-05
-1.4420546e-12
-2.4588239e-05
8.1040608e-14
-2.8146866e-05
1.5883501e-12
-2.8146867e-05
1.8871101e-12
-2.458824e-05
6.6768327e-13
-1.7522427e-05
-6.9962758e-06
-7.8943101e-13
-6.9962739e-06
-1.5618842e-12
-1.7522424e-05
-1.5167907e-12
-2.4588238e-05
7.7259359e-14
-2.8146867e-05
1.6742202e-12
-2.8146867e-05
1.69334e-12
-2.4588239e-05
8.545289e-13
-1.7522425e-05
-6.9962744e-06
-5.7140504e-13
-6.9962735e-06
-1.6854355e-12
-1.7522423e-05
-1.377956e-12
-2.4588238e-05
8.1992711e-14
-2.8146868e-05
1.5247331e-12
-2.8146869e-05
1.8140426e-12
-2.4588239e-05
6.397487e-13
-1.7522424e-05
-6.9962739e-06
-7.58923e-13
-6.9962721e-06
-1.494194e-12
-1.7522421e-05
-1.4522367e-12
-2.4588237e-05
7.77507e-14
-2.8146869e-05
1.6099358e-12
-2.8146869e-05
1.6235468e-12
-2.4588238e-05
8.2188705e-13
-1.7522422e-05
-6.9962726e-06
-5.4581579e-13
-6.9962717e-06
-1.6160765e-12
-1.752242e-05
-1.3157518e-12
-2.4588238e-05
8.2385302e-14
-2.8146871e-05
1.4620756e-12
-2.8146871e-05
1.7423696e-12
-2.4588239e-05
6.122304e-13
-1.7522421e-05
-6.9962721e-06
-7.2931106e-13
-6.9962703e-06
-1.4283308e-12
-1.7522418e-05
-1.3897162e-12
-2.4588237e-05
7.7697717e-14
-2.8146871e-05
1.5467579e-12
-2.8146871e-05
1.5550786e-12
-2.4588238e-05
7.8999607e-13
-1.7522419e-05
-6.9962708e-06
-5.2086294e-13
-6.9962699e-06
-1.5487538e-12
-1.7522417e-05
-1.2555538e-12
-2.4588237e-05
8.2236962e-14
-2.8146873e-05
1.4005292e-12
-2.8146873e-05
1.6722494e-12
-2.4588238e-05
5.8520245e-13
-1.7522418e-05
-6.9962704e-06
-7.0062705e-13
-6.9962686e-06
-1.3643995e-12
-1.7522416e-05
-1.3293194e-12
-2.4588236e-05
7.712629e-14
-2.8146873e-05
1.4848257e-12
-2.8146873e-05
1.4880841e-12
-2.4588237e-05
7.5891491e-13
-1.7522417e-05
-6.9962691e-06
-4.9658145e-13
-6.9962683e-06
-1.4835495e-12
-1.7522415e-05
-1.1974341e-12
-2.4588237e-05
8.1579528e-14
-2.8146874e-05
1.3402258e-12
-2.8146875e-05
1.6038124e-12
-2.4588238e-05
5.5872715e-13
-1.7522416e-05
-6.9962687e-06
-6.7288928e-13
-6.996267e-06
-1.30247e-12
-1.7522413e-05
-1.2710966e-12
-2.4588236e-05
7.6073812e-14
-2.8146875e-05
1.4242589e-12
-2.8146875e-05
1.4226856e-12
-2.4588237e-05
7.2868943e-13
-1.7522414e-05
-6.9962675e-06
-4.7299387e-13
-6.9962667e-06
-1.4205122e-12
-1.7522413e-05
-1.1414276e-12
-2.4588236e-05
8.0455756e-14
-2.8146876e-05
1.2812776e-12
-2.8146877e-05
1.5371627e-12
-2.4588237e-05
5.3285485e-13
-1.7522414e-05
-6.9962671e-06
-6.4610392e-13
-6.9962655e-06
-1.2425802e-12
-1.7522411e-05
-1.2150642e-12
-2.4588235e-05
7.4587764e-14
-2.8146877e-05
1.3651573e-12
-2.8146877e-05
1.3589794e-12
-2.4588236e-05
6.9935328e-13
-1.7522412e-05
-6.9962659e-06
-4.5011276e-13
-6.9962652e-06
-1.3596592e-12
-1.752241e-05
-1.0875375e-12
-2.4588236e-05
7.8916702e-14
-2.8146878e-05
1.223778e-12
-2.8146879e-05
1.4723786e-12
-2.4588237e-05
5.0762518e-13
-1.7522411e-05
-6.9962656e-06
-6.2026667e-13
-6.996264e-06
-1.1847404e-12
-1.7522409e-05
-1.1612074e-12
-2.4588235e-05
7.27221e-14
-2.8146878e-05
1.3076021e-12
-2.8146879e-05
1.2970381e-12
-2.4588236e-05
6.7092913e-13
-1.752241e-05
-6.9962645e-06
-4.2794088e-13
-6.9962638e-06
-1.3009821e-12
-1.7522408e-05
-1.0357392e-12
-2.4588235e-05
7.7018653e-14
-2.814688e-05
1.1678019e-12
-2.814688e-05
1.4095155e-12
-2.4588236e-05
4.8306744e-13
-1.7522409e-05
-6.9962642e-06
-5.9536462e-13
-6.9962626e-06
-1.1289359e-12
-1.7522407e-05
-1.1094874e-12
-2.4588235e-05
7.0534945e-14
-2.814688e-05
1.251656e-12
-2.814688e-05
1.2369121e-12
-2.4588235e-05
6.4342892e-13
-1.7522408e-05
-6.9962631e-06
-4.0647373e-13
-6.9962624e-06
-1.2444496e-12
-1.7522406e-05
-9.8598583e-13
-2.4588235e-05
7.4821334e-14
-2.8146881e-05
1.1134059e-12
-2.8146882e-05
1.3486073e-12
-2.4588236e-05
4.5920169e-13
-1.7522407e-05
-6.9962628e-06
-5.7137766e-13
-6.9962613e-06
-1.075133e-12
-1.7522405e-05
-1.0598449e-12
-2.4588234e-05
6.808631e-14
-2.8146882e-05
1.1973637e-12
-2.8146882e-05
1.1786318e-12
-2.4588235e-05
6.1685608e-13
-1.7522406e-05
-6.9962617e-06
-3.8570021e-13
-6.9962611e-06
-1.1900134e-12
-1.7522404e-05
-9.3821361e-13
-2.4588235e-05
7.238492e-14
-2.8146883e-05
1.0606293e-12
-2.8146883e-05
1.2896681e-12
-2.4588236e-05
4.3603989e-13
-1.7522405e-05
-6.9962615e-06
-5.4827966e-13
-6.99626e-06
-1.0232824e-12
-1.7522403e-05
-1.0122061e-12
-2.4588234e-05
6.5435834e-14
-2.8146883e-05
1.1447537e-12
-2.8146884e-05
1.1222089e-12
-2.4588235e-05
5.912058e-13
-1.7522404e-05
-6.9962604e-06
-3.6560435e-13
-6.9962599e-06
-1.137611e-12
-1.7522402e-05
-8.9234594e-13
-2.4588235e-05
6.9767727e-14
-2.8146885e-05
1.009496e-12
-2.8146885e-05
1.2326954e-12
-2.4588235e-05
4.1358644e-13
-1.7522403e-05
-6.9962602e-06
-5.2604101e-13
-6.9962588e-06
-9.7332277e-13
-1.7522401e-05
-9.6648679e-13
-2.4588234e-05
6.2640176e-14
-2.8146885e-05
1.0938394e-12
-2.8146885e-05
1.0676399e-12
-2.4588234e-05
5.6646678e-13
-1.7522402e-05
-6.9962592e-06
-3.4616678e-13
-6.9962588e-06
-1.0871706e-12
-1.7522401e-05
-8.4829842e-13
-2.4588234e-05
6.7025357e-14
-2.8146886e-05
9.6001533e-13
-2.8146886e-05
1.1776724e-12
-2.4588235e-05
3.9183949e-13
-1.7522402e-05
-6.996259e-06
-5.0462853e-13
-6.9962577e-06
-9.2518506e-13
-1.75224e-05
-9.2259601e-13
-2.4588233e-05
5.9752204e-14
-2.8146886e-05
1.0446203e-12
-2.8146886e-05
1.0149074e-12
-2.4588234e-05
5.4262202e-13
-1.75224e-05
-6.9962581e-06
-3.273652e-13
-6.9962576e-06
-1.0386139e-12
-1.7522399e-05
-8.0598132e-13
-2.4588234e-05
6.420856e-14
-2.8146887e-05
9.1218359e-13
-2.8146888e-05
1.1245691e-12
-2.4588235e-05
3.7079206e-13
-1.75224e-05
-6.9962579e-06
-4.8400785e-13
-6.9962566e-06
-8.787951e-13
-1.7522398e-05
-8.8044004e-13
-2.4588233e-05
5.6820029e-14
-2.8146888e-05
9.9708395e-13
-2.8146888e-05
9.6398258e-13
-2.4588234e-05
5.1964991e-13
-1.7522399e-05
-6.996257e-06
-3.0917618e-13
-6.9962566e-06
-9.9185849e-13
-1.7522398e-05
-7.6530385e-13
-2.4588234e-05
6.1362655e-14
-2.8146889e-05
8.6598585e-13
-2.8146889e-05
1.0733456e-12
-2.4588235e-05
3.5043284e-13
-1.7522398e-05
-6.9962569e-06
-4.6414373e-13
-6.9962556e-06
-8.3407609e-13
-1.7522396e-05
-8.3992512e-13
-2.4588233e-05
5.388578e-14
-2.8146889e-05
9.5120785e-13
-2.8146889e-05
9.148276e-13
-2.4588234e-05
4.9752539e-13
-1.7522397e-05
-6.9962559e-06
-2.9157562e-13
-6.9962556e-06
-9.4682114e-13
-1.7522396e-05
-7.2617562e-13
-2.4588234e-05
5.8526835e-14
-2.814689e-05
8.213977e-13
-2.814689e-05
1.0239545e-12
-2.4588234e-05
3.3074721e-13
-1.7522397e-05
-6.9962558e-06
-4.4500108e-13
-6.9962546e-06
-7.9095075e-13
-1.7522395e-05
-8.0095865e-13
-2.4588233e-05
5.0985183e-14
-2.814689e-05
9.0696043e-13
-2.814689e-05
8.6739769e-13
-2.4588233e-05
4.7622122e-13
-1.7522396e-05
-6.996255e-06
-2.7453914e-13
-6.9962546e-06
-9.0341972e-13
-1.7522395e-05
-6.8850907e-13
-2.4588233e-05
5.5734642e-14
-2.8146891e-05
7.7838668e-13
-2.8146892e-05
9.7634224e-13
-2.4588234e-05
3.11718e-13
-1.7522395e-05
-6.9962549e-06
-4.2654543e-13
-6.9962537e-06
-7.4934368e-13
-1.7522394e-05
-7.6345217e-13
-2.4588233e-05
4.8148396e-14
-2.8146891e-05
8.643036e-13
-2.8146892e-05
8.2164255e-13
-2.4588233e-05
4.5570818e-13
-1.7522394e-05
-6.996254e-06
-2.5804331e-13
-6.9962537e-06
-8.6157334e-13
-1.7522393e-05
-6.522211e-13
-2.4588233e-05
5.301351e-14
-2.8146892e-05
7.3691453e-13
-2.8146893e-05
9.3045089e-13
-2.4588234e-05
2.9332644e-13
-1.7522394e-05
-6.996254e-06
-4.087435e-13
-6.9962528e-06
-7.0918125e-13
-1.7522392e-05
-7.2732207e-13
-2.4588232e-05
4.5400108e-14
-2.8146892e-05
8.2319404e-13
-2.8146893e-05
7.7750848e-13
-2.4588233e-05
4.3595601e-13
-1.7522393e-05
-6.9962531e-06
-2.420652e-13
-6.9962529e-06
-8.2120536e-13
-1.7522392e-05
-6.1723325e-13
-2.4588233e-05
5.03856e-14
-2.8146894e-05
6.9693836e-13
-2.8146894e-05
8.8622023e-13
-2.4588234e-05
2.7555227e-13
-1.7522393e-05
-6.9962531e-06
-3.9156345e-13
-6.996252e-06
-6.7039415e-13
-1.7522391e-05
-6.9248981e-13
-2.4588232e-05
4.2759262e-14
-2.8146893e-05
7.8358471e-13
-2.8146894e-05
7.3494019e-13
-2.4588233e-05
4.1693427e-13
-1.7522392e-05
-6.9962523e-06
-2.2658365e-13
-6.9962521e-06
-7.8224252e-13
-1.7522391e-05
-5.8347305e-13
-2.4588233e-05
4.7867733e-14
-2.8146895e-05
6.5841234e-13
-2.8146895e-05
8.4358921e-13
-2.4588234e-05
2.5837545e-13
-1.7522392e-05
-6.9962523e-06
-3.749756e-13
-6.9962512e-06
-6.3291689e-13
-1.752239e-05
-6.5888313e-13
-2.4588232e-05
4.0239983e-14
-2.8146894e-05
7.454266e-13
-2.8146895e-05
6.9388142e-13
-2.4588233e-05
3.9861281e-13
-1.7522391e-05
-6.9962515e-06
-2.1157833e-13
-6.9962513e-06
-7.4461725e-13
-1.752239e-05
-5.5087399e-13
-2.4588233e-05
4.5472131e-14
-2.8146896e-05
6.2128901e-13
-2.8146896e-05
8.0249679e-13
-2.4588233e-05
2.4177515e-13
-1.752239e-05
-6.9962515e-06
-3.5895163e-13
-6.9962504e-06
-5.9668939e-13
-1.7522389e-05
-6.2643613e-13
-2.4588232e-05
3.785226e-14
-2.8146895e-05
7.0866948e-13
-2.8146896e-05
6.5427651e-13
-2.4588233e-05
3.8096202e-13
-1.7522389e-05
-6.9962507e-06
-1.9703131e-13
-6.9962506e-06
-7.0826661e-13
-1.7522389e-05
-5.1937601e-13
-2.4588233e-05
4.3207029e-14
-2.8146897e-05
5.8552019e-13
-2.8146897e-05
7.6288298e-13
-2.4588233e-05
2.2573188e-13
-1.7522389e-05
-6.9962508e-06
-3.4346605e-13
-6.9962497e-06
-5.6165614e-13
-1.7522388e-05
-5.9508949e-13
-2.4588232e-05
3.5602281e-14
-2.8146896e-05
6.73263e-13
-2.8146897e-05
6.1607136e-13
-2.4588232e-05
3.6395345e-13
-1.7522388e-05
-6.99625e-06
-1.82926e-13
-6.9962499e-06
-6.7313308e-13
-1.7522388e-05
-4.8892534e-13
-2.4588233e-05
4.1077426e-14
-2.8146897e-05
5.5105802e-13
-2.8146898e-05
7.2469e-13
-2.4588233e-05
2.1022626e-13
-1.7522388e-05
-6.9962501e-06
-3.2849511e-13
-6.9962491e-06
-5.2776709e-13
-1.7522387e-05
-5.6478975e-13
-2.4588232e-05
3.349296e-14
-2.8146897e-05
6.3915784e-13
-2.8146897e-05
5.7921402e-13
-2.4588232e-05
3.4755985e-13
-1.7522387e-05
-6.9962493e-06
-1.692477e-13
-6.9962492e-06
-6.3916478e-13
-1.7522387e-05
-4.5947436e-13
-2.4588232e-05
3.908497e-14
-2.8146898e-05
5.1785615e-13
-2.8146898e-05
6.8786326e-13
-2.4588233e-05
1.9524004e-13
-1.7522387e-05
-6.9962494e-06
-3.1401745e-13
-6.9962484e-06
-4.9497776e-13
-1.7522386e-05
-5.3549022e-13
-2.4588232e-05
3.1524744e-14
-2.8146898e-05
6.0630696e-13
-2.8146898e-05
5.4365598e-13
-2.4588232e-05
3.3175588e-13
-1.7522387e-05
-6.9962487e-06
-1.5598347e-13
-6.9962486e-06
-6.063156e-13
-1.7522386e-05
-4.3098143e-13
-2.4588232e-05
3.722936e-14
-2.8146899e-05
4.8587068e-13
-2.8146899e-05
6.5235125e-13
-2.4588233e-05
1.8075689e-13
-1.7522386e-05
-6.9962488e-06
-3.0001377e-13
-6.9962479e-06
-4.6324876e-13
-1.7522385e-05
-5.0714975e-13
-2.4588232e-05
2.9695995e-14
-2.8146899e-05
5.7466573e-13
-2.8146899e-05
5.0935174e-13
-2.4588232e-05
3.1651774e-13
-1.7522386e-05
-6.9962481e-06
-1.4312259e-13
-6.9962481e-06
-5.7454432e-13
-1.7522385e-05
-4.0341071e-13
-2.4588232e-05
3.5508576e-14
-2.81469e-05
4.5506018e-13
-2.81469e-05
6.1810672e-13
-2.4588233e-05
1.6676145e-13
-1.7522386e-05
-6.9962482e-06
-2.86467e-13
-6.9962473e-06
-4.3254595e-13
-1.7522384e-05
-4.7973302e-13
-2.4588231e-05
2.8003568e-14
-2.81469e-05
5.4419249e-13
-2.81469e-05
4.762606e-13
-2.4588232e-05
3.0182382e-13
-1.7522385e-05
-6.9962475e-06
-1.3065576e-13
-6.9962475e-06
-5.4381575e-13
-1.7522384e-05
-3.767315e-13
-2.4588232e-05
3.3918888e-14
-2.8146901e-05
4.2538666e-13
-2.8146901e-05
5.8508701e-13
-2.4588233e-05
1.5324048e-13
-1.7522385e-05
-6.9962476e-06
-2.7336239e-13
-6.9962468e-06
-4.0284066e-13
-1.7522384e-05
-4.5320995e-13
-2.4588231e-05
2.6443591e-14
-2.81469e-05
5.1484919e-13
-2.81469e-05
4.4434554e-13
-2.4588232e-05
2.8765459e-13
-1.7522384e-05
-6.996247e-06
-1.1857594e-13
-6.996247e-06
-5.1409964e-13
-1.7522384e-05
-3.5091862e-13
-2.4588232e-05
3.2456534e-14
-2.8146901e-05
3.9681598e-13
-2.8146901e-05
5.5325367e-13
-2.4588232e-05
1.4018222e-13
-1.7522384e-05
-6.9962471e-06
-2.6068722e-13
-6.9962463e-06
-3.7410898e-13
-1.7522383e-05
-4.2755574e-13
-2.4588231e-05
2.5011107e-14
-2.8146901e-05
4.8660254e-13
-2.8146901e-05
4.1357478e-13
-2.4588232e-05
2.7399262e-13
-1.7522383e-05
-6.9962465e-06
-1.0687756e-13
-6.9962465e-06
-4.8537085e-13
-1.7522383e-05
-3.2595179e-13
-2.4588232e-05
3.1116397e-14
-2.8146902e-05
3.6931847e-13
-2.8146902e-05
5.2257368e-13
-2.4588232e-05