/*--------------------------------*- C++ -*----------------------------------*\
| =========                 |                                                 |
| \\      /  F ield         | OpenFOAM: The Open Source CFD Toolbox           |
|  \\    /   O peration     | Version:  5.x                                   |
|   \\  /    A nd           | Web:      www.OpenFOAM.org                      |
|    \\/     M anipulation  |                                                 |
\*---------------------------------------------------------------------------*/
FoamFile
{
    version     2.0;
    format      ascii;
    class       volSymmTensorField;
    location    "4";
    object      sigma_0;
}
// * * * * * * * * * * * * * * * * * * * * * * * * * * * * * * * * * * * * * //

dimensions      [0 2 -2 0 0 0 0];

internalField   nonuniform List<symmTensor> 
1920
(
(0.0017220554 0.010972049 0 -0.0070851963 0 0)
(-0.00037544882 0.003929584 0 0.0013398492 0 0)
(-0.0012148359 0.0027186359 0 0.00088769467 0 0)
(-0.0007540587 0.0008783841 0 0.0007745263 0 0)
(-0.00075402799 -0.00087839385 0 0.00077449541 0 0)
(-0.0012148523 -0.0027185856 0 0.00088771159 0 0)
(-0.00037545107 -0.00392957 0 0.0013398523 0 0)
(0.0017220542 -0.010972049 0 -0.0070851931 0 0)
(0.0039086674 0.0072834189 0 -0.0034371132 0 0)
(0.00034290695 0.0013733979 0 0.00052434374 0 0)
(-0.0024549566 0.00033685229 0 0.0020466863 0 0)
(-0.0023849131 0.00023360574 0 0.0021634338 0 0)
(-0.0023848912 -0.00023361359 0 0.0021634085 0 0)
(-0.0024549771 -0.00033676745 0 0.0020467095 0 0)
(0.00034290829 -0.0013734009 0 0.00052433803 0 0)
(0.0039086671 -0.0072834223 0 -0.0034371131 0 0)
(0.0032885394 0.0062412153 0 -0.0043546946 0 0)
(0.00087526336 0.0006615622 0 -0.00050453301 0 0)
(-0.001957635 0.00015574626 0 0.0017278633 0 0)
(-0.0023903689 4.7173987e-05 0 0.0022689642 0 0)
(-0.0023903986 -4.7171709e-05 0 0.002268998 0 0)
(-0.0019576204 -0.00015588372 0 0.0017278429 0 0)
(0.00087526721 -0.00066157437 0 -0.00050453387 0 0)
(0.0032885402 -0.0062412146 0 -0.0043546974 0 0)
(0.0025302536 0.0058409298 0 -0.0036304107 0 0)
(0.00096643833 0.0011177466 0 -0.00082969308 0 0)
(-0.0013789999 0.00018704959 0 0.0012878989 0 0)
(-0.0021472763 -1.2237727e-06 0 0.0021171362 0 0)
(-0.0021472651 1.2155302e-06 0 0.0021171241 0 0)
(-0.0013790127 -0.00018699427 0 0.0012879131 0 0)
(0.00096644353 -0.0011177415 0 -0.00082969908 0 0)
(0.0025302553 -0.0058409291 0 -0.0036304119 0 0)
(0.0018813715 0.0055842289 0 -0.0026829814 0 0)
(0.00086402697 0.001603783 0 -0.00084014404 0 0)
(-0.00090988427 0.00055394559 0 0.00084788321 0 0)
(-0.0018333074 6.6725813e-05 0 0.0018096521 0 0)
(-0.0018333665 -6.6731778e-05 0 0.0018097145 0 0)
(-0.00091004236 -0.00055383031 0 0.00084804145 0 0)
(0.00086403685 -0.0016037918 0 -0.00084015412 0 0)
(0.0018813837 -0.0055842298 0 -0.0026829948 0 0)
(0.0013898467 0.0053915346 0 -0.0020207135 0 0)
(0.000716527 0.0020774272 0 -0.00076421527 0 0)
(-0.00081211956 0.00067305635 0 0.00075903934 0 0)
(-0.001294925 0.00019070524 0 0.0012777248 0 0)
(-0.0012948974 -0.00019072152 0 0.0012776937 0 0)
(-0.00081186602 -0.00067329021 0 0.0007587898 0 0)
(0.0007165478 -0.0020774133 0 -0.00076423605 0 0)
(0.0013898448 -0.0053915283 0 -0.0020207102 0 0)
(0.00096467379 0.0052247443 0 -0.0015144258 0 0)
(0.0005370709 0.0025612528 0 -0.00064247177 0 0)
(-0.00044483208 0.0011047638 0 0.00039727346 0 0)
(-0.0010012487 0.00028870636 0 0.00099248441 0 0)
(-0.0010012087 -0.00028872562 0 0.00099244552 0 0)
(-0.00044481092 -0.0011047664 0 0.00039725123 0 0)
(0.00053708793 -0.0025612441 0 -0.00064248775 0 0)
(0.0009646798 -0.0052247346 0 -0.0015144319 0 0)
(0.00067593605 0.0051130812 0 -0.0011833419 0 0)
(0.00042556626 0.002788724 0 -0.00056497816 0 0)
(-0.00028642805 0.0013666677 0 0.00023744482 0 0)
(-0.00074902865 0.00037841123 0 0.00074556803 0 0)
(-0.00074907775 -0.00037840097 0 0.00074561606 0 0)
(-0.00028643999 -0.0013666302 0 0.00023745693 0 0)
(0.00042556864 -0.00278874 0 -0.00056498218 0 0)
(0.0006759376 -0.0051130713 0 -0.0011833425 0 0)
(0.00046873169 0.0050380506 0 -0.0009492474 0 0)
(0.00030252208 0.0030244196 0 -0.00046922353 0 0)
(-0.00018949631 0.0015573552 0 0.0001350276 0 0)
(-0.00054585065 0.00045552557 0 0.00054368094 0 0)
(-0.00054576603 -0.00045556365 0 0.00054359821 0 0)
(-0.00018946084 -0.0015573929 0 0.00013499216 0 0)
(0.00030254958 -0.003024391 0 -0.00046925093 0 0)
(0.00046874316 -0.0050380374 0 -0.00094925822 0 0)
(0.00031629706 0.0049852718 0 -0.00078032073 0 0)
(0.00021925614 0.0031672327 0 -0.00040499955 0 0)
(-0.00012131655 0.0017105855 0 6.0605332e-05 0 0)
(-0.000374838 0.00052431749 0 0.00037211156 0 0)
(-0.00037493397 -0.0005242843 0 0.0003722067 0 0)
(-0.00012132329 -0.0017105499 0 6.0612671e-05 0 0)
(0.0002192567 -0.0031672403 0 -0.00040500028 0 0)
(0.00031629826 -0.0049852559 0 -0.00078032072 0 0)
(0.0002076407 0.0049494342 0 -0.00066184253 0 0)
(0.00015645809 0.0032684011 0 -0.00035558504 0 0)
(-7.5571464e-05 0.0018268977 0 9.3827012e-06 0 0)
(-0.00025553049 0.00057479357 0 0.00025159164 0 0)
(-0.00025547918 -0.00057482535 0 0.0002515405 0 0)
(-7.5547986e-05 -0.0018269327 0 9.3586508e-06 0 0)
(0.000156476 -0.0032683769 0 -0.00035560248 0 0)
(0.00020765128 -0.0049494168 0 -0.00066185152 0 0)
(0.00013367299 0.004925953 0 -0.00058213253 0 0)
(0.0001077766 0.0033428115 0 -0.0003161023 0 0)
(-4.6047869e-05 0.0019111832 0 -2.4507383e-05 0 0)
(-0.00017022876 0.00061254103 0 0.00016501016 0 0)
(-0.00017017092 -0.0006125704 0 0.00016495201 0 0)
(-4.6053897e-05 -0.0019111563 0 -2.4501104e-05 0 0)
(0.00010777562 -0.0033428103 0 -0.00031610115 0 0)
(0.0001336733 -0.0049259333 0 -0.00058213147 0 0)
(8.4774286e-05 0.0049109205 0 -0.00052990268 0 0)
(7.2438138e-05 0.0033940198 0 -0.00028686078 0 0)
(-2.749865e-05 0.0019702549 0 -4.6340259e-05 0 0)
(-0.00011124488 0.0006394725 0 0.00010493724 0 0)
(-0.00011146441 -0.00063939488 0 0.00010515658 0 0)
(-2.7489568e-05 -0.001970279 0 -4.6349774e-05 0 0)
(7.2447244e-05 -0.0033939995 0 -0.00028686937 0 0)
(8.4779654e-05 -0.0049109001 0 -0.00052990583 0 0)
(5.2817141e-05 0.0049013844 0 -0.00049603257 0 0)
(4.7751656e-05 0.0034280457 0 -0.00026613141 0 0)
(-1.6000161e-05 0.002010906 0 -6.0195511e-05 0 0)
(-7.2375694e-05 0.00065790965 0 6.5224832e-05 0 0)
(-7.210826e-05 -0.00065803271 0 6.4956838e-05 0 0)
(-1.6006247e-05 -0.002010893 0 -6.0189477e-05 0 0)
(4.7747124e-05 -0.0034280413 0 -0.00026612624 0 0)
(5.2817563e-05 -0.004901364 0 -0.00049603141 0 0)
(3.2246604e-05 0.0048954258 0 -0.00047438725 0 0)
(3.0878962e-05 0.0034502742 0 -0.00025177969 0 0)
(-9.0307186e-06 0.0020382894 0 -6.8797178e-05 0 0)
(-4.6179564e-05 0.00067065526 0 3.8413572e-05 0 0)
(-4.6458743e-05 -0.00067054618 0 3.8693482e-05 0 0)
(-9.0314329e-06 -0.0020383045 0 -6.879675e-05 0 0)
(3.0879943e-05 -0.0034502603 0 -0.00025178019 0 0)
(3.224788e-05 -0.0048954051 0 -0.00047438614 0 0)
(1.9241862e-05 0.0048917795 0 -0.00046079774 0 0)
(1.9593222e-05 0.0034645034 0 -0.00024207281 0 0)
(-4.8729075e-06 0.0020564873 0 -7.4051137e-05 0 0)
(-2.8680311e-05 0.00067936232 0 2.0484999e-05 0 0)
(-2.8284376e-05 -0.00067955623 0 2.0087193e-05 0 0)
(-4.879212e-06 -0.002056486 0 -7.4045136e-05 0 0)
(1.958737e-05 -0.0034644973 0 -0.00024206613 0 0)
(1.9240768e-05 -0.0048917598 0 -0.00046079493 0 0)
(1.1159465e-05 0.0048895983 0 -0.00045241375 0 0)
(1.2169107e-05 0.0034734851 0 -0.00023561881 0 0)
(-2.4748799e-06 0.0020683117 0 -7.7166128e-05 0 0)
(-1.7580379e-05 0.00068503681 0 9.0983922e-06 0 0)
(-1.7837094e-05 -0.00068493539 0 9.355873e-06 0 0)
(-2.4802349e-06 -0.0020683211 0 -7.7161022e-05 0 0)
(1.2165028e-05 -0.0034734768 0 -0.00023561432 0 0)
(1.1157889e-05 -0.0048895791 0 -0.00045240994 0 0)
(6.2461321e-06 0.0048883343 0 -0.00044735618 0 0)
(7.3869275e-06 0.0034790239 0 -0.00023142098 0 0)
(-1.1266775e-06 0.0020758996 0 -7.8971805e-05 0 0)
(-1.0631022e-05 0.00068867297 0 1.9618514e-06 0 0)
(-1.0531772e-05 -0.00068873809 0 1.8618429e-06 0 0)
(-1.1325342e-06 -0.0020759056 0 -7.8966393e-05 0 0)
(7.3811977e-06 -0.0034790179 0 -0.0002314145 0 0)
(6.2441541e-06 -0.0048883165 0 -0.00044735251 0 0)
(3.3237956e-06 0.0048876314 0 -0.00044437605 0 0)
(4.3562108e-06 0.0034823852 0 -0.0002287345 0 0)
(-4.0920135e-07 0.0020806492 0 -7.9973498e-05 0 0)
(-5.9992673e-06 0.00069114018 0 -2.7904633e-06 0 0)
(-6.1306543e-06 -0.00069109339 0 -2.6588494e-06 0 0)
(-4.1551489e-07 -0.0020806554 0 -7.9967447e-05 0 0)
(4.3502069e-06 -0.0034823806 0 -0.00022872815 0 0)
(3.3208145e-06 -0.0048876143 0 -0.00044437115 0 0)
(1.6516241e-06 0.0048872654 0 -0.00044268929 0 0)
(2.4794593e-06 0.0034843658 0 -0.00022705459 0 0)
(-4.9879899e-08 0.0020835756 0 -8.0505125e-05 0 0)
(-3.328814e-06 0.0006926075 0 -5.5352921e-06 0 0)
(-3.1685548e-06 -0.0006927033 0 -5.6965132e-06 0 0)
(-5.4846295e-08 -0.0020835846 0 -8.0500672e-05 0 0)
(2.4746842e-06 -0.0034843606 0 -0.00022704925 0 0)
(1.6496612e-06 -0.0048872497 0 -0.00044268577 0 0)
(7.062746e-07 0.00488709 0 -0.0004417502 0 0)
(1.3424708e-06 0.0034855022 0 -0.00022602693 0 0)
(1.0875911e-07 0.002085328 0 -8.0764407e-05 0 0)
(-1.5423577e-06 0.00069360636 0 -7.367504e-06 0 0)
(-1.7480716e-06 -0.00069351673 0 -7.1603185e-06 0 0)
(1.032887e-07 -0.0020853327 0 -8.0759242e-05 0 0)
(1.3364979e-06 -0.0034854993 0 -0.00022602068 0 0)
(7.0303916e-07 -0.0048870751 0 -0.00044174538 0 0)
(2.0849479e-07 0.0048870227 0 -0.000441266 0 0)
(6.7319473e-07 0.0034861267 0 -0.0002254149 0 0)
(1.6151509e-07 0.0020863469 0 -8.0874175e-05 0 0)
(-8.1560156e-07 0.00069404453 0 -8.1182363e-06 0 0)
(-6.208261e-07 -0.00069416504 0 -8.3152594e-06 0 0)
(1.5730493e-07 -0.0020863558 0 -8.0870447e-05 0 0)
(6.6943873e-07 -0.0034861222 0 -0.00022541074 0 0)
(2.0643329e-07 -0.0048870088 0 -0.00044126256 0 0)
(-2.94975e-08 0.0048870163 0 -0.00044104349 0 0)
(2.9510452e-07 0.0034864462 0 -0.00022506566 0 0)
(1.6317048e-07 0.0020869189 0 -8.0905886e-05 0 0)
(-1.7150488e-07 0.00069443018 0 -8.778011e-06 0 0)
(-1.9894428e-07 -0.0006944299 0 -8.7507302e-06 0 0)
(1.5888876e-07 -0.0020869232 0 -8.0901944e-05 0 0)
(2.8994397e-07 -0.0034864436 0 -0.00022506027 0 0)
(-3.2113368e-08 -0.0048870032 0 -0.00044103959 0 0)
(-1.3601117e-07 0.0048870378 0 -0.00044095097 0 0)
(8.7899379e-08 0.0034865982 0 -0.00022487029 0 0)
(1.4242446e-07 0.0020872178 0 -8.090026e-05 0 0)
(2.7112921e-08 0.00069456716 0 -8.9836613e-06 0 0)
(-6.0841934e-08 -0.00069452883 0 -8.8950013e-06 0 0)
(1.3866083e-07 -0.0020872253 0 -8.0896896e-05 0 0)
(8.4723828e-08 -0.0034865944 0 -0.00022486683 0 0)
(-1.3814113e-07 -0.0048870255 0 -0.00044094766 0 0)
(-1.6247024e-07 0.0048870647 0 -0.00044093625 0 0)
(-1.33502e-08 0.0034866582 0 -0.00022477288 0 0)
(1.1571786e-07 0.0020873657 0 -8.087947e-05 0 0)
(8.4758455e-08 0.00069461385 0 -9.0444603e-06 0 0)
(1.1385324e-07 -0.00069464462 0 -9.0741115e-06 0 0)
(1.1230214e-07 -0.0020873702 0 -8.0876374e-05 0 0)
(-1.7459146e-08 -0.0034866554 0 -0.00022476855 0 0)
(-1.6460486e-07 -0.004887053 0 -0.00044093308 0 0)
(-1.5330007e-07 0.0048870949 0 -0.00044095489 0 0)
(-6.8327926e-08 0.0034866753 0 -0.00022471665 0 0)
(9.0824947e-08 0.0020874239 0 -8.0856288e-05 0 0)
(1.4306749e-07 0.0006946636 0 -9.1044363e-06 0 0)
(1.2903235e-07 -0.0006946643 0 -9.0905222e-06 0 0)
(8.7192916e-08 -0.0020874297 0 -8.0852975e-05 0 0)
(-7.1452791e-08 -0.0034866724 0 -0.00022471332 0 0)
(-1.5557316e-07 -0.0048870835 0 -0.00044095158 0 0)
(-1.3106533e-07 0.0048871181 0 -0.00044098418 0 0)
(-7.2678424e-08 0.0034866643 0 -0.00022471064 0 0)
(6.6326873e-08 0.0020874411 0 -8.083071e-05 0 0)
(1.3859765e-07 0.00069466647 0 -9.100273e-06 0 0)
(1.4016841e-07 -0.00069467821 0 -9.1020562e-06 0 0)
(6.2986494e-08 -0.0020874458 0 -8.082767e-05 0 0)
(-7.6949187e-08 -0.003486661 0 -0.00022470606 0 0)
(-1.3272026e-07 -0.0048871079 0 -0.0004409817 0 0)
(-1.0447705e-07 0.0048871389 0 -0.00044101543 0 0)
(-7.3083659e-08 0.0034866402 0 -0.00022470848 0 0)
(4.887847e-08 0.0020874289 0 -8.0811805e-05 0 0)
(1.239549e-07 0.00069466928 0 -9.0854957e-06 0 0)
(1.2474114e-07 -0.00069467809 0 -9.0864921e-06 0 0)
(4.5381274e-08 -0.0020874332 0 -8.0808518e-05 0 0)
(-7.6396193e-08 -0.0034866377 0 -0.00022470498 0 0)
(-1.06125e-07 -0.0048871293 0 -0.00044101296 0 0)
(-8.1450848e-08 0.0048871542 0 -0.00044104241 0 0)
(-6.0968469e-08 0.003486621 0 -0.00022471774 0 0)
(3.5097158e-08 0.0020874091 0 -8.0796304e-05 0 0)
(1.1117587e-07 0.00069466186 0 -9.0723739e-06 0 0)
(1.0835691e-07 -0.00069467124 0 -9.0696686e-06 0 0)
(3.1587376e-08 -0.0020874129 0 -8.0793018e-05 0 0)
(-6.470583e-08 -0.003486619 0 -0.00022471376 0 0)
(-8.3317363e-08 -0.0048871448 0 -0.00044103981 0 0)
(-6.3930679e-08 0.004887166 0 -0.00044106218 0 0)
(-5.2948712e-08 0.003486606 0 -0.00022472405 0 0)
(2.2866254e-08 0.0020873846 0 -8.078238e-05 0 0)
(8.4866133e-08 0.00069465399 0 -9.0455705e-06 0 0)
(8.498994e-08 -0.0006946622 0 -9.0458583e-06 0 0)
(2.007338e-08 -0.0020873895 0 -8.0779793e-05 0 0)
(-5.6250172e-08 -0.0034866036 0 -0.00022472059 0 0)
(-6.5569609e-08 -0.0048871576 0 -0.00044105984 0 0)
(-4.6766936e-08 0.0048871761 0 -0.00044108146 0 0)
(-4.0844285e-08 0.0034865894 0 -0.00022473432 0 0)
(1.7554941e-08 0.0020873651 0 -8.0775902e-05 0 0)
(7.7126348e-08 0.00069464839 0 -9.0374972e-06 0 0)
(7.2162869e-08 -0.00069465475 0 -9.0326141e-06 0 0)
(1.4171887e-08 -0.0020873682 0 -8.077271e-05 0 0)
(-4.4420927e-08 -0.0034865874 0 -0.00022473052 0 0)
(-4.8536637e-08 -0.004887168 0 -0.00044107907 0 0)
(-3.6496885e-08 0.0048871835 0 -0.00044109269 0 0)
(-3.4452053e-08 0.003486579 0 -0.00022473971 0 0)
(1.2660173e-08 0.0020873487 0 -8.076978e-05 0 0)
(5.5350561e-08 0.00069463851 0 -9.0152996e-06 0 0)
(5.3660417e-08 -0.00069464546 0 -9.0137356e-06 0 0)
(9.3577756e-09 -0.0020873522 0 -8.0766633e-05 0 0)
(-3.7723761e-08 -0.0034865771 0 -0.00022473628 0 0)
(-3.8106774e-08 -0.0048871763 0 -0.00044109049 0 0)
(-2.6785279e-08 0.0048871894 0 -0.00044110355 0 0)
(-2.5786498e-08 0.0034865681 0 -0.0002247473 0 0)
(1.0888693e-08 0.0020873358 0 -8.0767148e-05 0 0)
(4.559994e-08 0.00069463329 0 -9.0052907e-06 0 0)
(4.4465899e-08 -0.00069463951 0 -9.004264e-06 0 0)
(7.7570344e-09 -0.0020873387 0 -8.0764165e-05 0 0)
(-2.9168417e-08 -0.0034865664 0 -0.00022474372 0 0)
(-2.8483169e-08 -0.0048871826 0 -0.00044110133 0 0)
(-2.0874946e-08 0.0048871941 0 -0.00044110977 0 0)
(-2.1816684e-08 0.0034865617 0 -0.00022475088 0 0)
(7.7538131e-09 0.0020873238 0 -8.0763339e-05 0 0)
(3.4164148e-08 0.00069462635 0 -8.9936255e-06 0 0)
(3.2650644e-08 -0.00069463206 0 -8.9922046e-06 0 0)
(4.6462606e-09 -0.0020873268 0 -8.0760357e-05 0 0)
(-2.4922581e-08 -0.0034865602 0 -0.00022474763 0 0)
(-2.2420168e-08 -0.0048871881 0 -0.00044110774 0 0)
(-1.6390418e-08 0.0048871979 0 -0.00044111497 0 0)
(-1.6795802e-08 0.0034865553 0 -0.00022475523 0 0)
(6.5789459e-09 0.0020873147 0 -8.0761709e-05 0 0)
(2.8639283e-08 0.00069462312 0 -8.9879544e-06 0 0)
(2.7950093e-08 -0.00069462852 0 -8.9873668e-06 0 0)
(3.7721706e-09 -0.0020873173 0 -8.0759007e-05 0 0)
(-1.9878225e-08 -0.0034865539 0 -0.00022475197 0 0)
(-1.7973885e-08 -0.0048871922 0 -0.00044111296 0 0)
(-1.2889828e-08 0.0048872011 0 -0.00044111848 0 0)
(-1.4407667e-08 0.0034865511 0 -0.00022475756 0 0)
(5.2472379e-09 0.0020873068 0 -8.0759974e-05 0 0)
(2.3169576e-08 0.00069461896 0 -8.9823828e-06 0 0)
(2.1712302e-08 -0.0006946233 0 -8.9809915e-06 0 0)
(2.5092601e-09 -0.0020873095 0 -8.0757341e-05 0 0)
(-1.7252779e-08 -0.00348655 0 -0.00022475458 0 0)
(-1.4346313e-08 -0.0048871961 0 -0.00044111663 0 0)
(-1.1214138e-08 0.0048872038 0 -0.0004411207 0 0)
(-1.1885724e-08 0.0034865474 0 -0.00022475961 0 0)
(4.4590706e-09 0.0020873007 0 -8.0758969e-05 0 0)
(2.053532e-08 0.00069461694 0 -8.9796677e-06 0 0)
(1.9987536e-08 -0.00069462197 0 -8.9792114e-06 0 0)
(2.0100713e-09 -0.0020873031 0 -8.07566e-05 0 0)
(-1.4586847e-08 -0.0034865464 0 -0.00022475675 0 0)
(-1.2647801e-08 -0.0048871992 0 -0.00044111891 0 0)
(-9.2175517e-09 0.0048872062 0 -0.00044112256 0 0)
(-1.0615201e-08 0.0034865447 0 -0.00022476095 0 0)
(3.9766716e-09 0.0020872952 0 -8.0758218e-05 0 0)
(1.8065262e-08 0.00069461443 0 -8.9771602e-06 0 0)
(1.7194211e-08 -0.00069461865 0 -8.9763457e-06 0 0)
(1.6578839e-09 -0.0020872976 0 -8.0755988e-05 0 0)
(-1.3091072e-08 -0.0034865439 0 -0.00022475836 0 0)
(-1.0512688e-08 -0.0048872022 0 -0.00044112094 0 0)
(-8.7043411e-09 0.0048872084 0 -0.00044112355 0 0)
(-9.3809304e-09 0.0034865425 0 -0.00022476182 0 0)
(3.4889059e-09 0.0020872907 0 -8.0757616e-05 0 0)
(1.6741294e-08 0.00069461282 0 -8.9757865e-06 0 0)
(1.6223772e-08 -0.00069461716 0 -8.9753463e-06 0 0)
(1.4357933e-09 -0.0020872929 0 -8.0755631e-05 0 0)
(-1.1648158e-08 -0.0034865417 0 -0.00022475943 0 0)
(-9.9394916e-09 -0.0048872048 0 -0.00044112203 0 0)
(-7.5798372e-09 0.0048872104 0 -0.00044112447 0 0)
(-8.8553865e-09 0.0034865406 0 -0.00022476247 0 0)
(3.3076341e-09 0.002087287 0 -8.0757251e-05 0 0)
(1.5468516e-08 0.00069461094 0 -8.9745025e-06 0 0)
(1.4812521e-08 -0.00069461461 0 -8.9738936e-06 0 0)
(1.4291589e-09 -0.0020872891 0 -8.0755451e-05 0 0)
(-1.0902218e-08 -0.00348654 0 -0.00022476033 0 0)
(-8.6686118e-09 -0.0048872072 0 -0.00044112311 0 0)
(-7.4921249e-09 0.0048872124 0 -0.000441125 0 0)
(-8.1708079e-09 0.003486539 0 -0.00022476285 0 0)
(2.9924437e-09 0.0020872832 0 -8.0756872e-05 0 0)
(1.4719198e-08 0.00069460958 0 -8.973719e-06 0 0)
(1.4225009e-08 -0.00069461316 0 -8.9732897e-06 0 0)
(1.3546218e-09 -0.002087285 0 -8.0755293e-05 0 0)
(-9.9902825e-09 -0.0034865385 0 -0.00022476093 0 0)
(-8.5022519e-09 -0.0048872096 0 -0.00044112376 0 0)
(-6.7811217e-09 0.0048872141 0 -0.00044112548 0 0)
(-8.0300247e-09 0.0034865376 0 -0.00022476315 0 0)
(2.8794855e-09 0.0020872806 0 -8.0756625e-05 0 0)
(1.3986174e-08 0.00069460799 0 -8.9729854e-06 0 0)
(1.3474027e-08 -0.00069461106 0 -8.9725126e-06 0 0)
(1.4274097e-09 -0.0020872823 0 -8.0755242e-05 0 0)
(-9.6439383e-09 -0.0034865372 0 -0.00022476146 0 0)
(-7.6529108e-09 -0.0048872116 0 -0.00044112439 0 0)
(-6.8665369e-09 0.0048872161 0 -0.00044112582 0 0)
(-7.5676463e-09 0.0034865364 0 -0.00022476334 0 0)
(2.6442454e-09 0.0020872772 0 -8.0756358e-05 0 0)
(1.3490226e-08 0.00069460679 0 -8.9724633e-06 0 0)
(1.3069218e-08 -0.00069460973 0 -8.9720976e-06 0 0)
(1.4020429e-09 -0.0020872787 0 -8.0755168e-05 0 0)
(-8.9627675e-09 -0.003486536 0 -0.00022476186 0 0)
(-7.6555877e-09 -0.0048872138 0 -0.00044112485 0 0)
(-6.3330571e-09 0.0048872177 0 -0.00044112612 0 0)
(-7.5909313e-09 0.0034865352 0 -0.00022476349 0 0)
(2.5561789e-09 0.002087275 0 -8.0756158e-05 0 0)
(1.3004502e-08 0.00069460535 0 -8.9719812e-06 0 0)
(1.2623858e-08 -0.00069460789 0 -8.971634e-06 0 0)
(1.4853377e-09 -0.0020872764 0 -8.0755149e-05 0 0)
(-8.8064163e-09 -0.0034865349 0 -0.00022476222 0 0)
(-6.9985576e-09 -0.0048872157 0 -0.00044112527 0 0)
(-6.4884064e-09 0.0048872196 0 -0.00044112638 0 0)
(-7.2165798e-09 0.0034865341 0 -0.0002247636 0 0)
(2.3616073e-09 0.0020872719 0 -8.075595e-05 0 0)
(1.262251e-08 0.00069460424 0 -8.9715779e-06 0 0)
(1.2297814e-08 -0.00069460667 0 -8.9713011e-06 0 0)
(1.465409e-09 -0.0020872732 0 -8.0755102e-05 0 0)
(-8.2376782e-09 -0.0034865338 0 -0.00022476252 0 0)
(-7.0786235e-09 -0.0048872178 0 -0.00044112564 0 0)
(-6.0272827e-09 0.0048872211 0 -0.00044112659 0 0)
(-7.2979701e-09 0.0034865331 0 -0.0002247637 0 0)
(2.2932207e-09 0.0020872699 0 -8.0755782e-05 0 0)
(1.2252002e-08 0.00069460288 0 -8.9712127e-06 0 0)
(1.1987118e-08 -0.00069460501 0 -8.9709766e-06 0 0)
(1.5402157e-09 -0.002087271 0 -8.0755086e-05 0 0)
(-8.1712075e-09 -0.0034865328 0 -0.00022476279 0 0)
(-6.5114943e-09 -0.0048872195 0 -0.00044112596 0 0)
(-6.2072027e-09 0.004887223 0 -0.00044112682 0 0)
(-6.9560638e-09 0.0034865321 0 -0.0002247638 0 0)
(2.1256418e-09 0.002087267 0 -8.075561e-05 0 0)
(1.1924425e-08 0.00069460183 0 -8.9708671e-06 0 0)
(1.1692702e-08 -0.00069460387 0 -8.9706777e-06 0 0)
(1.5118344e-09 -0.002087268 0 -8.0755042e-05 0 0)
(-7.6689907e-09 -0.0034865317 0 -0.00022476304 0 0)
(-6.6300465e-09 -0.0048872215 0 -0.00044112627 0 0)
(-5.7744537e-09 0.0048872244 0 -0.000441127 0 0)
(-7.0496315e-09 0.0034865311 0 -0.00022476388 0 0)
(2.0754416e-09 0.0020872651 0 -8.0755469e-05 0 0)
(1.1610487e-08 0.00069460053 0 -8.9705595e-06 0 0)
(1.1439719e-08 -0.00069460234 0 -8.970414e-06 0 0)
(1.5721067e-09 -0.002087266 0 -8.0755019e-05 0 0)
(-7.6474661e-09 -0.0034865308 0 -0.00022476326 0 0)
(-6.1097821e-09 -0.0048872231 0 -0.00044112654 0 0)
(-5.9596516e-09 0.0048872262 0 -0.00044112721 0 0)
(-6.7164589e-09 0.0034865302 0 -0.00022476398 0 0)
(1.9295484e-09 0.0020872624 0 -8.0755324e-05 0 0)
(1.1311966e-08 0.00069459952 0 -8.9702457e-06 0 0)
(1.1156921e-08 -0.00069460125 0 -8.9701285e-06 0 0)
(1.5325346e-09 -0.0020872632 0 -8.075497e-05 0 0)
(-7.1897339e-09 -0.0034865298 0 -0.00022476348 0 0)
(-6.2497355e-09 -0.0048872249 0 -0.00044112682 0 0)
(-5.5377949e-09 0.0048872276 0 -0.00044112739 0 0)
(-6.8045673e-09 0.0034865293 0 -0.00022476408 0 0)
(1.8957143e-09 0.0020872605 0 -8.0755207e-05 0 0)
(1.1028736e-08 0.00069459827 0 -8.9699697e-06 0 0)
(1.092893e-08 -0.00069459986 0 -8.9698924e-06 0 0)
(1.5778477e-09 -0.0020872613 0 -8.075494e-05 0 0)
(-7.1935084e-09 -0.0034865289 0 -0.00022476367 0 0)
(-5.7581289e-09 -0.0048872264 0 -0.00044112706 0 0)
(-5.7205997e-09 0.0048872293 0 -0.00044112759 0 0)
(-6.4710023e-09 0.0034865284 0 -0.00022476418 0 0)
(1.7681672e-09 0.002087258 0 -8.0755083e-05 0 0)
(1.0748061e-08 0.00069459728 0 -8.9696762e-06 0 0)
(1.064987e-08 -0.00069459881 0 -8.9696123e-06 0 0)
(1.5280491e-09 -0.0020872587 0 -8.0754884e-05 0 0)
(-6.7679693e-09 -0.003486528 0 -0.00022476387 0 0)
(-5.9113446e-09 -0.0048872282 0 -0.00044112731 0 0)
(-5.3033256e-09 0.0048872307 0 -0.00044112776 0 0)
(-6.5484566e-09 0.0034865275 0 -0.00022476429 0 0)
(1.7481288e-09 0.0020872562 0 -8.0754987e-05 0 0)
(1.0483788e-08 0.00069459609 0 -8.96942e-06 0 0)
(1.0433671e-08 -0.00069459752 0 -8.9693902e-06 0 0)
(1.5597591e-09 -0.0020872569 0 -8.0754847e-05 0 0)
(-6.7880847e-09 -0.0034865272 0 -0.00022476404 0 0)
(-5.4399997e-09 -0.0048872296 0 -0.00044112753 0 0)
(-5.4811736e-09 0.0048872324 0 -0.00044112796 0 0)
(-6.2124503e-09 0.0034865267 0 -0.00022476441 0 0)
(1.6358796e-09 0.0020872538 0 -8.0754881e-05 0 0)
(1.0215494e-08 0.00069459513 0 -8.9691411e-06 0 0)
(1.0155788e-08 -0.0006945965 0 -8.9691129e-06 0 0)
(1.5019114e-09 -0.0020872544 0 -8.0754786e-05 0 0)
(-6.3879666e-09 -0.0034865263 0 -0.00022476422 0 0)
(-5.6019338e-09 -0.0048872312 0 -0.00044112777 0 0)
(-5.0666511e-09 0.0048872336 0 -0.00044112812 0 0)
(-6.2790086e-09 0.0034865259 0 -0.00022476452 0 0)
(1.6264732e-09 0.0020872521 0 -8.0754801e-05 0 0)
(9.9644262e-09 0.000694594 0 -8.968899e-06 0 0)
(9.9463268e-09 -0.00069459533 0 -8.9688995e-06 0 0)
(1.5224184e-09 -0.0020872527 0 -8.0754743e-05 0 0)
(-6.4191353e-09 -0.0034865255 0 -0.00022476438 0 0)
(-5.1463017e-09 -0.0048872326 0 -0.00044112797 0 0)
(-5.2392949e-09 0.0048872352 0 -0.00044112832 0 0)
(-5.9413695e-09 0.0034865251 0 -0.00022476465 0 0)
(1.5265707e-09 0.0020872497 0 -8.0754711e-05 0 0)
(9.7055103e-09 0.00069459306 0 -8.9686315e-06 0 0)
(9.6693416e-09 -0.00069459433 0 -8.9686244e-06 0 0)
(1.4588132e-09 -0.0020872503 0 -8.075468e-05 0 0)
(-6.0384395e-09 -0.0034865247 0 -0.00022476455 0 0)
(-5.3139721e-09 -0.0048872342 0 -0.00044112819 0 0)
(-4.8273564e-09 0.0048872364 0 -0.00044112849 0 0)
(-5.9986572e-09 0.0034865243 0 -0.00022476477 0 0)
(1.5247461e-09 0.0020872481 0 -8.0754644e-05 0 0)
(9.4645663e-09 0.00069459199 0 -8.9684002e-06 0 0)
(9.464839e-09 -0.00069459326 0 -8.9684178e-06 0 0)
(1.470503e-09 -0.0020872487 0 -8.0754634e-05 0 0)
(-6.0772413e-09 -0.0034865239 0 -0.00022476469 0 0)
(-4.8711127e-09 -0.0048872354 0 -0.00044112837 0 0)
(-4.9955119e-09 0.004887238 0 -0.00044112868 0 0)
(-5.6611843e-09 0.0034865236 0 -0.0002247649 0 0)
(1.4345626e-09 0.0020872459 0 -8.0754566e-05 0 0)
(9.2132458e-09 0.00069459108 0 -8.9681421e-06 0 0)
(9.1894568e-09 -0.00069459228 0 -8.9681455e-06 0 0)
(1.403265e-09 -0.0020872464 0 -8.075457e-05 0 0)
(-5.7125193e-09 -0.0034865232 0 -0.00022476485 0 0)
(-5.0425207e-09 -0.0048872369 0 -0.00044112858 0 0)
(-4.5866391e-09 0.0048872391 0 -0.00044112884 0 0)
(-5.7113957e-09 0.0034865228 0 -0.00022476503 0 0)
(1.4376983e-09 0.0020872444 0 -8.0754509e-05 0 0)
(8.9806609e-09 0.00069459007 0 -8.9679198e-06 0 0)
(8.9894296e-09 -0.0006945913 0 -8.9679448e-06 0 0)
(1.4083453e-09 -0.0020872449 0 -8.0754522e-05 0 0)
(-5.7565103e-09 -0.0034865224 0 -0.00022476499 0 0)
(-4.6103135e-09 -0.0048872381 0 -0.00044112875 0 0)
(-4.751328e-09 0.0048872406 0 -0.00044112903 0 0)
(-5.3760391e-09 0.0034865221 0 -0.00022476517 0 0)
(1.3550323e-09 0.0020872422 0 -8.0754439e-05 0 0)
(8.735914e-09 0.0006945892 0 -8.96767e-06 0 0)
(8.7167556e-09 -0.00069459035 0 -8.9676763e-06 0 0)
(1.3392682e-09 -0.0020872427 0 -8.0754457e-05 0 0)
(-5.4050938e-09 -0.0034865217 0 -0.00022476514 0 0)
(-4.7840738e-09 -0.0048872396 0 -0.00044112895 0 0)
(-4.3462188e-09 0.0048872417 0 -0.00044112919 0 0)
(-5.4213953e-09 0.0034865214 0 -0.0002247653 0 0)
(1.3610665e-09 0.0020872408 0 -8.075439e-05 0 0)
(8.5106835e-09 0.00069458825 0 -8.9674554e-06 0 0)
(8.5212394e-09 -0.00069458945 0 -8.9674812e-06 0 0)
(1.3396409e-09 -0.0020872413 0 -8.0754409e-05 0 0)
(-5.4524984e-09 -0.003486521 0 -0.00022476528 0 0)
(-4.3609453e-09 -0.0048872407 0 -0.00044112912 0 0)
(-4.5084924e-09 0.0048872431 0 -0.00044112937 0 0)
(-5.0896448e-09 0.0034865207 0 -0.00022476544 0 0)
(1.2841839e-09 0.0020872388 0 -8.0754328e-05 0 0)
(8.2720233e-09 0.0006945874 0 -8.9672132e-06 0 0)
(8.252494e-09 -0.00069458852 0 -8.9672175e-06 0 0)
(1.2701293e-09 -0.0020872392 0 -8.0754346e-05 0 0)
(-5.1123488e-09 -0.0034865203 0 -0.00022476542 0 0)
(-4.5361157e-09 -0.004887242 0 -0.0004411293 0 0)
(-4.10784e-09 0.0048872441 0 -0.00044112953 0 0)
(-5.1321084e-09 0.00348652 0 -0.00022476557 0 0)
(1.2916181e-09 0.0020872374 0 -8.0754285e-05 0 0)
(8.0536358e-09 0.00069458651 0 -8.9670057e-06 0 0)
(8.0617371e-09 -0.0006945877 0 -8.9670281e-06 0 0)
(1.2673275e-09 -0.0020872379 0 -8.0754299e-05 0 0)
(-5.1619746e-09 -0.0034865196 0 -0.00022476555 0 0)
(-4.1209532e-09 -0.0048872431 0 -0.00044112946 0 0)
(-4.2686771e-09 0.0048872454 0 -0.00044112971 0 0)
(-4.8048681e-09 0.0034865194 0 -0.00022476571 0 0)
(1.2192234e-09 0.0020872355 0 -8.0754228e-05 0 0)
(7.820953e-09 0.00069458571 0 -8.9667706e-06 0 0)
(7.7981159e-09 -0.0006945868 0 -8.9667701e-06 0 0)
(1.1984271e-09 -0.0020872359 0 -8.0754238e-05 0 0)
(-4.8316418e-09 -0.003486519 0 -0.00022476569 0 0)
(-4.2970041e-09 -0.0048872444 0 -0.00044112964 0 0)
(-3.8730822e-09 0.0048872464 0 -0.00044112985 0 0)
(-4.8459374e-09 0.0034865187 0 -0.00022476584 0 0)
(1.2270531e-09 0.0020872342 0 -8.0754189e-05 0 0)
(7.6092338e-09 0.00069458487 0 -8.9665698e-06 0 0)
(7.6124549e-09 -0.00069458604 0 -8.9665865e-06 0 0)
(1.1936331e-09 -0.0020872347 0 -8.0754192e-05 0 0)
(-4.8827922e-09 -0.0034865183 0 -0.00022476582 0 0)
(-3.8890673e-09 -0.0048872454 0 -0.00044112979 0 0)
(-4.0333557e-09 0.0048872477 0 -0.00044113003 0 0)
(-4.524823e-09 0.0034865182 0 -0.00022476598 0 0)
(1.1582238e-09 0.0020872324 0 -8.0754137e-05 0 0)
(7.3826767e-09 0.0006945841 0 -8.9663419e-06 0 0)
(7.3550511e-09 -0.00069458518 0 -8.9663352e-06 0 0)
(1.1260851e-09 -0.0020872328 0 -8.0754133e-05 0 0)
(-4.5612994e-09 -0.0034865177 0 -0.00022476595 0 0)
(-4.0657736e-09 -0.0048872466 0 -0.00044112996 0 0)
(-3.6433039e-09 0.0048872485 0 -0.00044113017 0 0)
(-4.5655947e-09 0.0034865175 0 -0.00022476611 0 0)
(1.1658371e-09 0.0020872312 0 -8.0754101e-05 0 0)
(7.1776691e-09 0.00069458332 0 -8.9661476e-06 0 0)
(7.1748497e-09 -0.00069458448 0 -8.9661575e-06 0 0)
(1.1201805e-09 -0.0020872316 0 -8.0754089e-05 0 0)
(-4.613656e-09 -0.0034865171 0 -0.00022476607 0 0)
(-3.6646025e-09 -0.0048872475 0 -0.00044113011 0 0)
(-3.8037662e-09 0.0048872498 0 -0.00044113034 0 0)
(-4.2515321e-09 0.003486517 0 -0.00022476625 0 0)
(1.0999419e-09 0.0020872294 0 -8.0754052e-05 0 0)
(6.9575465e-09 0.00069458259 0 -8.965927e-06 0 0)
(6.9246268e-09 -0.00069458365 0 -8.9659137e-06 0 0)
(1.0544849e-09 -0.0020872299 0 -8.0754033e-05 0 0)
(-4.3003782e-09 -0.0034865166 0 -0.00022476621 0 0)
(-3.8419567e-09 -0.0048872487 0 -0.00044113027 0 0)
(-3.4196243e-09 0.0048872506 0 -0.00044113048 0 0)
(-4.2929761e-09 0.0034865164 0 -0.00022476638 0 0)
(1.1070137e-09 0.0020872283 0 -8.0754019e-05 0 0)
(6.7594211e-09 0.00069458186 0 -8.9657394e-06 0 0)
(6.7502369e-09 -0.000694583 0 -8.965742e-06 0 0)
(1.0481112e-09 -0.0020872288 0 -8.0753992e-05 0 0)
(-4.3538882e-09 -0.003486516 0 -0.00022476633 0 0)
(-3.4472865e-09 -0.0048872495 0 -0.00044113041 0 0)
(-3.5809118e-09 0.0048872517 0 -0.00044113064 0 0)
(-3.9864582e-09 0.0034865159 0 -0.00022476651 0 0)
(1.0436352e-09 0.0020872267 0 -8.0753973e-05 0 0)
(6.5461215e-09 0.00069458117 0 -8.9655263e-06 0 0)
(6.5080165e-09 -0.00069458221 0 -8.9655065e-06 0 0)
(9.8458653e-10 -0.0020872271 0 -8.0753939e-05 0 0)
(-4.0484467e-09 -0.0034865155 0 -0.00022476645 0 0)
(-3.6254271e-09 -0.0048872507 0 -0.00044113057 0 0)
(-3.202943e-09 0.0048872525 0 -0.00044113077 0 0)
(-4.0293636e-09 0.0034865153 0 -0.00022476663 0 0)
(1.0500378e-09 0.0020872256 0 -8.0753942e-05 0 0)
(6.3551062e-09 0.00069458049 0 -8.9653452e-06 0 0)
(6.3397548e-09 -0.00069458161 0 -8.9653409e-06 0 0)
(9.7820373e-10 -0.0020872261 0 -8.07539e-05 0 0)
(-4.1032272e-09 -0.0034865149 0 -0.00022476657 0 0)
(-3.2371181e-09 -0.0048872515 0 -0.0004411307 0 0)
(-3.3655896e-09 0.0048872536 0 -0.00044113093 0 0)
(-3.7307032e-09 0.0034865148 0 -0.00022476677 0 0)
(9.8890973e-10 0.0020872241 0 -8.0753899e-05 0 0)
(6.1490372e-09 0.00069457984 0 -8.9651399e-06 0 0)
(6.1062194e-09 -0.00069458086 0 -8.9651142e-06 0 0)
(9.1703783e-10 -0.0020872245 0 -8.075385e-05 0 0)
(-3.8054e-09 -0.0034865144 0 -0.00022476669 0 0)
(-3.4162694e-09 -0.0048872525 0 -0.00044113085 0 0)
(-2.993968e-09 0.0048872543 0 -0.00044113105 0 0)
(-3.7756852e-09 0.0034865143 0 -0.00022476688 0 0)
(9.9464175e-10 0.0020872231 0 -8.0753869e-05 0 0)
(5.965367e-09 0.0006945792 0 -8.9649657e-06 0 0)
(5.9443498e-09 -0.00069458029 0 -8.9649549e-06 0 0)
(9.1097334e-10 -0.0020872235 0 -8.0753814e-05 0 0)