/*--------------------------------*- C++ -*----------------------------------*\
| =========                 |                                                 |
| \\      /  F ield         | OpenFOAM: The Open Source CFD Toolbox           |
|  \\    /   O peration     | Version:  5.x                                   |
|   \\  /    A nd           | Web:      www.OpenFOAM.org                      |
|    \\/     M anipulation  |                                                 |
\*---------------------------------------------------------------------------*/
FoamFile
{
    version     2.0;
    format      ascii;
    class       volSymmTensorField;
    location    "4";
    object      sigma;
}
// * * * * * * * * * * * * * * * * * * * * * * * * * * * * * * * * * * * * * //

dimensions      [0 2 -2 0 0 0 0];

internalField   nonuniform List<symmTensor> 
1920
(
(0.0019084704 0.011755534 0 -0.0074880489 0 0)
(-0.00038204487 0.0042811682 0 0.0014166079 0 0)
(-0.0013257636 0.0028954703 0 0.00098376755 0 0)
(-0.00085317009 0.00093737269 0 0.0008743896 0 0)
(-0.00085313944 -0.00093738311 0 0.00087435822 0 0)
(-0.0013257799 -0.0028954205 0 0.0009837848 0 0)
(-0.00038204693 -0.0042811543 0 0.0014166104 0 0)
(0.0019084692 -0.011755535 0 -0.0074880458 0 0)
(0.0041668415 0.0078807489 0 -0.0036933017 0 0)
(0.00037901704 0.0015092069 0 0.00055203351 0 0)
(-0.0025969944 0.00041635247 0 0.0021736697 0 0)
(-0.0025423997 0.00026360629 0 0.0023123319 0 0)
(-0.0025423779 -0.00026361462 0 0.0023123081 0 0)
(-0.0025970142 -0.00041626961 0 0.0021736912 0 0)
(0.00037901867 -0.0015092103 0 0.00055202834 0 0)
(0.0041668413 -0.007880752 0 -0.003693302 0 0)
(0.0035410384 0.0067657653 0 -0.0046411198 0 0)
(0.00093560847 0.00076098749 0 -0.00052890846 0 0)
(-0.0020888932 0.00019053856 0 0.0018503381 0 0)
(-0.0025717166 5.8847724e-05 0 0.0024452512 0 0)
(-0.0025717459 -5.8845841e-05 0 0.0024452833 0 0)
(-0.0020888781 -0.00019067454 0 0.0018503185 0 0)
(0.00093561282 -0.00076099933 0 -0.00052891064 0 0)
(0.0035410394 -0.0067657646 0 -0.0046411224 0 0)
(0.0027385616 0.0063276713 0 -0.0038788796 0 0)
(0.0010359193 0.0012315229 0 -0.00088207173 0 0)
(-0.0014871722 0.00021877315 0 0.0013919521 0 0)
(-0.0023201537 6.0330368e-06 0 0.0022891803 0 0)
(-0.0023201421 -6.041527e-06 0 0.0022891689 0 0)
(-0.001487186 -0.00021871714 0 0.0013919666 0 0)
(0.001035925 -0.0012315181 0 -0.00088207751 0 0)
(0.0027385636 -0.0063276701 0 -0.0038788811 0 0)
(0.0020428906 0.0060475097 0 -0.0028726887 0 0)
(0.00093099243 0.0017509967 0 -0.000899263 0 0)
(-0.00099339877 0.00059787133 0 0.00092862978 0 0)
(-0.001979252 7.685416e-05 0 0.0019561286 0 0)
(-0.0019793116 -7.6859757e-05 0 0.0019561909 0 0)
(-0.000993553 -0.00059775958 0 0.00092878477 0 0)
(0.00093100261 -0.0017510049 0 -0.00089927376 0 0)
(0.002042903 -0.0060475104 0 -0.002872702 0 0)
(0.0015091643 0.0058378042 0 -0.0021598761 0 0)
(0.00077441688 0.0022597498 0 -0.00081933374 0 0)
(-0.00086769614 0.00074452107 0 0.00081228858 0 0)
(-0.0014125909 0.00020757448 0 0.001396314 0 0)
(-0.0014125616 -0.00020759105 0 0.0013962815 0 0)
(-0.00086744513 -0.00074475111 0 0.00081204118 0 0)
(0.00077443797 -0.0022597362 0 -0.00081935452 0 0)
(0.0015091627 -0.0058377975 0 -0.0021598731 0 0)
(0.0010503669 0.0056590801 0 -0.0016158822 0 0)
(0.00058451811 0.0027713089 0 -0.0006904219 0 0)
(-0.00048595796 0.0011955274 0 0.00043624597 0 0)
(-0.0010922388 0.0003136398 0 0.0010842829 0 0)
(-0.0010922008 -0.000313658 0 0.001084246 0 0)
(-0.00048593672 -0.0011955302 0 0.00043622373 0 0)
(0.00058453504 -0.0027712998 0 -0.00069043783 0 0)
(0.001050373 -0.0056590702 0 -0.0016158882 0 0)
(0.00073571024 0.0055386575 0 -0.0012568105 0 0)
(0.00046190706 0.003023146 0 -0.00060383804 0 0)
(-0.00031339038 0.0014800272 0 0.00026237933 0 0)
(-0.00081645118 0.00041132079 0 0.00081362355 0 0)
(-0.000816498 -0.00041131126 0 0.0008136691 0 0)
(-0.00031340226 -0.0014799897 0 0.00026239153 0 0)
(0.00046190953 -0.0030231619 0 -0.00060384227 0 0)
(0.00073571187 -0.0055386469 0 -0.001256811 0 0)
(0.00050952867 0.0054574075 0 -0.0010025464 0 0)
(0.00032970194 0.0032766931 0 -0.00050024789 0 0)
(-0.00020724151 0.001688349 0 0.00015077549 0 0)
(-0.00059547168 0.00049496607 0 0.00059376145 0 0)
(-0.00059538883 -0.00049500322 0 0.00059368084 0 0)
(-0.00020720654 -0.0016883864 0 0.0001507401 0 0)
(0.00032972895 -0.0032766641 0 -0.00050027448 0 0)
(0.00050954 -0.0054573943 0 -0.001002557 0 0)
(0.00034368824 0.0054003043 0 -0.00081947912 0 0)
(0.00023892357 0.0034326654 0 -0.00042926756 0 0)
(-0.00013276311 0.0018553749 0 7.0057137e-05 0 0)
(-0.00040925239 0.00056971686 0 0.00040681979 0 0)
(-0.00040934803 -0.00056968384 0 0.00040691402 0 0)
(-0.00013277018 -0.0018553394 0 7.0065232e-05 0 0)
(0.00023892382 -0.0034326732 0 -0.00042926833 0 0)
(0.00034368933 -0.0054002878 0 -0.00081947871 0 0)
(0.00022575101 0.0053615131 0 -0.00069130775 0 0)
(0.00017031965 0.003543226 0 -0.00037448138 0 0)
(-8.2841118e-05 0.0019820598 0 1.4629801e-05 0 0)
(-0.00027941194 0.0006245171 0 0.00027561935 0 0)
(-0.00027936117 -0.00062454851 0 0.00027556931 0 0)
(-8.2818332e-05 -0.0019820945 0 1.4605789e-05 0 0)
(0.0001703369 -0.0035432015 0 -0.00037449771 0 0)
(0.00022576133 -0.0053614957 0 -0.00069131652 0 0)
(0.00014546655 0.0053360342 0 -0.00060505073 0 0)
(0.0001173454 0.0036241041 0 -0.00033098526 0 0)
(-5.0581649e-05 0.002073897 0 -2.2018326e-05 0 0)
(-0.00018651746 0.00066550897 0 0.00018132804 0 0)
(-0.00018646022 -0.00066553822 0 0.00018126981 0 0)
(-5.0588238e-05 -0.0020738701 0 -2.2010948e-05 0 0)
(0.0001173439 -0.0036241031 0 -0.000330984 0 0)
(0.00014546662 -0.0053360142 0 -0.00060504911 0 0)
(9.2322266e-05 0.0053196785 0 -0.000548459 0 0)
(7.8931097e-05 0.0036796841 0 -0.00029882727 0 0)
(-3.0274503e-05 0.0021383634 0 -4.5631294e-05 0 0)
(-0.00012216314 0.00069479529 0 0.00011579866 0 0)
(-0.00012238102 -0.00069471835 0 0.00011601696 0 0)
(-3.0266089e-05 -0.0021383875 0 -4.5640793e-05 0 0)
(7.8939518e-05 -0.0036796636 0 -0.00029883468 0 0)
(9.2327375e-05 -0.0053196582 0 -0.00054846193 0 0)
(5.7563628e-05 0.0053092794 0 -0.00051172635 0 0)
(5.2070698e-05 0.003716639 0 -0.00027602105 0 0)
(-1.7658814e-05 0.0021827708 0 -6.0616762e-05 0 0)
(-7.955627e-05 0.00071492424 0 7.2287131e-05 0 0)
(-7.9292469e-05 -0.00071504564 0 7.2022129e-05 0 0)
(-1.7665529e-05 -0.0021827578 0 -6.0609597e-05 0 0)
(5.206558e-05 -0.003716635 0 -0.00027601566 0 0)
(5.7563753e-05 -0.0053092589 0 -0.00051172459 0 0)
(3.5169546e-05 0.0053027741 0 -0.0004882308 0 0)
(3.3700315e-05 0.0037407914 0 -0.00026022358 0 0)
(-9.9950819e-06 0.0022127334 0 -6.992246e-05 0 0)
(-5.0809659e-05 0.00072884327 0 4.2882709e-05 0 0)
(-5.1083336e-05 -0.00072873663 0 4.3157638e-05 0 0)
(-9.9963856e-06 -0.0022127486 0 -6.9921969e-05 0 0)
(3.3700685e-05 -0.0037407774 0 -0.00026022307 0 0)
(3.5170587e-05 -0.0053027538 0 -0.00048822949 0 0)
(2.0998809e-05 0.0052987873 0 -0.00047346464 0 0)
(2.139714e-05 0.0037562717 0 -0.00024952874 0 0)
(-5.4122898e-06 0.00223266 0 -7.5607021e-05 0 0)
(-3.1608198e-05 0.00073835582 0 2.3223726e-05 0 0)
(-3.1218677e-05 -0.00073854645 0 2.2831803e-05 0 0)
(-5.4192058e-06 -0.0022326584 0 -7.5600018e-05 0 0)
(2.1390703e-05 -0.003756266 0 -0.00024952175 0 0)
(2.0997423e-05 -0.0052987679 0 -0.00047346132 0 0)
(1.2183293e-05 0.0052964022 0 -0.00046434527 0 0)
(1.3296544e-05 0.0037660489 0 -0.00024241382 0 0)
(-2.76063e-06 0.0022456295 0 -7.8978349e-05 0 0)
(-1.9387699e-05 0.00074456762 0 1.0697432e-05 0 0)
(-1.9642059e-05 -0.00074446706 0 1.0952963e-05 0 0)
(-2.7665203e-06 -0.0022456388 0 -7.8973069e-05 0 0)
(1.3291917e-05 -0.0037660407 0 -0.00024240849 0 0)
(1.2181504e-05 -0.0052963836 0 -0.00046434126 0 0)
(6.8181713e-06 0.0052950197 0 -0.00045883806 0 0)
(8.0731216e-06 0.0037720875 0 -0.00023778163 0 0)
(-1.2655858e-06 0.0022539572 0 -8.0932905e-05 0 0)
(-1.1711229e-05 0.00074856211 0 2.822226e-06 0 0)
(-1.1613568e-05 -0.00074862595 0 2.7234755e-06 0 0)
(-1.2720225e-06 -0.0022539629 0 -8.0926646e-05 0 0)
(8.0668177e-06 -0.0037720819 0 -0.00023777476 0 0)
(6.8159053e-06 -0.0052950024 0 -0.00045883395 0 0)
(3.6249148e-06 0.0052942519 0 -0.00045558947 0 0)
(4.7592543e-06 0.0037757547 0 -0.00023481639 0 0)
(-4.6561537e-07 0.0022591782 0 -8.2016894e-05 0 0)
(-6.6248495e-06 0.00075125686 0 -2.3926803e-06 0 0)
(-6.7535319e-06 -0.00075121091 0 -2.2635248e-06 0 0)
(-4.724475e-07 -0.0022591842 0 -8.2010541e-05 0 0)
(4.7527246e-06 -0.0037757502 0 -0.00023480933 0 0)
(3.6217143e-06 -0.0052942356 0 -0.00045558435 0 0)
(1.7962487e-06 0.0052938536 0 -0.00045375006 0 0)
(2.7070823e-06 0.0037779185 0 -0.00023296131 0 0)
(-6.3510872e-08 0.0022623968 0 -8.2591973e-05 0 0)
(-3.6712143e-06 0.00075287029 0 -5.4248826e-06 0 0)
(-3.5155405e-06 -0.00075296299 0 -5.5817058e-06 0 0)
(-6.9030572e-08 -0.0022624054 0 -8.25868e-05 0 0)
(2.7017414e-06 -0.0037779136 0 -0.00023295548 0 0)
(1.7940282e-06 -0.0052938387 0 -0.0004537462 0 0)
(7.6197069e-07 0.0052936635 0 -0.00045272418 0 0)
(1.4621234e-06 0.0037791609 0 -0.00023182704 0 0)
(1.1637061e-07 0.002264326 0 -8.2871472e-05 0 0)
(-1.721407e-06 0.00075395574 0 -7.4234874e-06 0 0)
(-1.9222551e-06 -0.0007538681 0 -7.2210332e-06 0 0)
(1.1038843e-07 -0.0022643305 0 -8.2865909e-05 0 0)
(1.455634e-06 -0.0037791583 0 -0.00023182015 0 0)
(7.584897e-07 -0.0052936495 0 -0.00045271911 0 0)
(2.1792215e-07 0.0052935922 0 -0.00045219664 0 0)
(7.3116342e-07 0.003779844 0 -0.00023115209 0 0)
(1.7680793e-07 0.0022654483 0 -8.2989178e-05 0 0)
(-8.9344996e-07 0.00075444983 0 -8.2766377e-06 0 0)
(-7.0189e-07 -0.00075456771 0 -8.4705822e-06 0 0)
(1.7209022e-07 -0.0022654568 0 -8.2984842e-05 0 0)
(7.2687526e-07 -0.0037798399 0 -0.00023114743 0 0)
(2.1561191e-07 -0.0052935793 0 -0.00045219292 0 0)
(-4.0760019e-08 0.0052935865 0 -0.00045195456 0 0)
(3.1718514e-07 0.003780194 0 -0.00023076767 0 0)
(1.8054228e-07 0.002266078 0 -8.3021918e-05 0 0)
(-1.9926623e-07 0.00075486501 0 -8.9876079e-06 0 0)
(-2.2770444e-07 -0.00075486329 0 -8.9592185e-06 0 0)
(1.757924e-07 -0.002266082 0 -8.3017561e-05 0 0)
(3.1155369e-07 -0.0037801918 0 -0.00023076173 0 0)
(-4.3600063e-08 -0.0052935746 0 -0.00045195044 0 0)
(-1.5550911e-07 0.005293611 0 -0.0004518557 0 0)
(9.279318e-08 0.00378036 0 -0.0002305538 0 0)
(1.57765e-07 0.0022664073 0 -8.3014454e-05 0 0)
(2.5988467e-08 0.00075501896 0 -9.2200334e-06 0 0)
(-6.0465027e-08 -0.00075498071 0 -9.1329297e-06 0 0)
(1.5358672e-07 -0.0022664144 0 -8.3010613e-05 0 0)
(8.9180907e-08 -0.0037803567 0 -0.0002305499 0 0)
(-1.5784854e-07 -0.0052935999 0 -0.00045185217 0 0)
(-1.8207163e-07 0.0052936413 0 -0.0004518412 0 0)
(-1.7390755e-08 0.0037804251 0 -0.00023044812 0 0)
(1.287361e-07 0.0022665695 0 -8.299048e-05 0 0)
(9.5789596e-08 0.00075507523 0 -9.2933581e-06 0 0)
(1.242842e-07 -0.00075510466 0 -9.3223603e-06 0 0)
(1.2496101e-07 -0.0022665736 0 -8.2987046e-05 0 0)
(-2.1866874e-08 -0.0037804228 0 -0.00023044338 0 0)
(-1.8437302e-07 -0.0052936309 0 -0.00045183786 0 0)
(-1.7087055e-07 0.0052936746 0 -0.00045186303 0 0)
(-7.4394579e-08 0.0037804426 0 -0.0002303888 0 0)
(1.0052285e-07 0.0022666332 0 -8.2964219e-05 0 0)
(1.5693152e-07 0.00075512868 0 -9.3560129e-06 0 0)
(1.4298648e-07 -0.00075512854 0 -9.3422199e-06 0 0)
(9.6621364e-08 -0.0022666386 0 -8.2960595e-05 0 0)
(-7.7804264e-08 -0.0037804403 0 -0.00023038517 0 0)
(-1.7327167e-07 -0.0052936646 0 -0.0004518596 0 0)
(-1.4441443e-07 0.0052937003 0 -0.00045189639 0 0)
(-7.96277e-08 0.00378043 0 -0.00023038262 0 0)
(7.3697487e-08 0.0022666514 0 -8.293565e-05 0 0)
(1.513096e-07 0.00075513319 0 -9.3508487e-06 0 0)
(1.528094e-07 -0.00075514387 0 -9.3525244e-06 0 0)
(7.0160648e-08 -0.0022666557 0 -8.2932425e-05 0 0)
(-8.4078889e-08 -0.0037804273 0 -0.00023037783 0 0)
(-1.4614586e-07 -0.0052936915 0 -0.00045189384 0 0)
(-1.1459772e-07 0.0052937228 0 -0.00045193165 0 0)
(-7.7926903e-08 0.0037804036 0 -0.00023038159 0 0)
(5.3593311e-08 0.0022666382 0 -8.2914395e-05 0 0)
(1.3399284e-07 0.00075513613 0 -9.3331876e-06 0 0)
(1.3467622e-07 -0.00075514388 0 -9.3341059e-06 0 0)
(5.0017724e-08 -0.0022666421 0 -8.2910996e-05 0 0)
(-8.1316205e-08 -0.0037804016 0 -0.00023037801 0 0)
(-1.1627801e-07 -0.0052937147 0 -0.00045192915 0 0)
(-8.7795201e-08 0.0052937393 0 -0.00045196201 0 0)
(-6.4989536e-08 0.0037803822 0 -0.00023039244 0 0)
(3.8459755e-08 0.0022666166 0 -8.2896985e-05 0 0)
(1.1766513e-07 0.00075512835 0 -9.3166219e-06 0 0)
(1.1489268e-07 -0.00075513668 0 -9.3139322e-06 0 0)
(3.4956042e-08 -0.0022666201 0 -8.2893711e-05 0 0)
(-6.8706815e-08 -0.0037803807 0 -0.00023038848 0 0)
(-8.9626654e-08 -0.0052937313 0 -0.00045195945 0 0)
(-6.8082955e-08 0.0052937518 0 -0.00045198455 0 0)
(-5.4513135e-08 0.0037803652 0 -0.00023040038 0 0)
(2.4554394e-08 0.0022665907 0 -8.2881741e-05 0 0)
(8.8592353e-08 0.00075512004 0 -9.286858e-06 0 0)
(8.8693277e-08 -0.00075512716 0 -9.2871444e-06 0 0)
(2.1865932e-08 -0.0022665952 0 -8.2879234e-05 0 0)
(-5.7685798e-08 -0.0037803633 0 -0.00023039704 0 0)
(-6.964734e-08 -0.0052937448 0 -0.00045198231 0 0)
(-4.8422786e-08 0.0052937621 0 -0.00045200585 0 0)
(-4.1835173e-08 0.0037803472 0 -0.00023041199 0 0)
(1.8684558e-08 0.0022665699 0 -8.2874224e-05 0 0)
(7.8019264e-08 0.00075511402 0 -9.2760622e-06 0 0)
(7.3181746e-08 -0.00075511932 0 -9.2712749e-06 0 0)
(1.5482045e-08 -0.0022665726 0 -8.2871218e-05 0 0)
(-4.5197472e-08 -0.0037803457 0 -0.00023040841 0 0)
(-5.0056319e-08 -0.0052937554 0 -0.00045200361 0 0)
(-3.7138059e-08 0.0052937693 0 -0.0004520186 0 0)
(-3.3524433e-08 0.0037803357 0 -0.00023041851 0 0)
(1.2708566e-08 0.0022665528 0 -8.2867415e-05 0 0)
(5.4485482e-08 0.00075510395 0 -9.2519297e-06 0 0)
(5.2907786e-08 -0.00075510984 0 -9.2504985e-06 0 0)
(9.6862481e-09 -0.0022665559 0 -8.2864525e-05 0 0)
(-3.6489355e-08 -0.0037803343 0 -0.00023041539 0 0)
(-3.8583356e-08 -0.0052937635 0 -0.00045201659 0 0)
(-2.59073e-08 0.0052937749 0 -0.00045203047 0 0)
(-2.4842335e-08 0.0037803242 0 -0.0002304269 0 0)
(1.0867525e-08 0.0022665395 0 -8.2864282e-05 0 0)
(4.3107594e-08 0.00075509867 0 -9.2404175e-06 0 0)
(4.2118029e-08 -0.00075510382 0 -9.2395054e-06 0 0)
(8.0627978e-09 -0.002266542 0 -8.2861631e-05 0 0)
(-2.7857477e-08 -0.003780323 0 -0.00023042369 0 0)
(-2.7391572e-08 -0.0052937694 0 -0.00045202847 0 0)
(-1.9775262e-08 0.0052937792 0 -0.00045203739 0 0)
(-1.9489748e-08 0.0037803174 0 -0.00023043109 0 0)
(7.0236263e-09 0.0022665277 0 -8.2860173e-05 0 0)
(3.0837233e-08 0.00075509186 0 -9.2277571e-06 0 0)
(2.9468458e-08 -0.00075509655 0 -9.2265005e-06 0 0)
(4.3168178e-09 -0.0022665302 0 -8.285757e-05 0 0)
(-2.2163968e-08 -0.0037803164 0 -0.00023042827 0 0)
(-2.1094805e-08 -0.0052937744 0 -0.00045203561 0 0)
(-1.4341469e-08 0.0052937823 0 -0.00045204302 0 0)
(-1.4863128e-08 0.0037803109 0 -0.00023043583 0 0)
(6.0654853e-09 0.0022665189 0 -8.2858347e-05 0 0)
(2.4450171e-08 0.00075508885 0 -9.2213577e-06 0 0)
(2.3944977e-08 -0.00075509323 0 -9.2209248e-06 0 0)
(3.6761498e-09 -0.0022665211 0 -8.2856069e-05 0 0)
(-1.7485405e-08 -0.00378031 0 -0.00023043304 0 0)
(-1.5666352e-08 -0.0052937778 0 -0.00045204126 0 0)
(-1.1052583e-08 0.0052937849 0 -0.00045204679 0 0)
(-1.1437302e-08 0.0037803069 0 -0.00023043842 0 0)
(4.2075031e-09 0.0022665117 0 -8.2856504e-05 0 0)
(1.871601e-08 0.00075508503 0 -9.2153709e-06 0 0)
(1.7423185e-08 -0.00075508841 0 -9.2141634e-06 0 0)
(1.9341623e-09 -0.0022665139 0 -8.2854315e-05 0 0)
(-1.378731e-08 -0.0037803062 0 -0.00023043593 0 0)
(-1.2254965e-08 -0.005293781 0 -0.0004520452 0 0)
(-8.7145303e-09 0.0052937869 0 -0.00045204913 0 0)
(-9.5428705e-09 0.0037803034 0 -0.00023044063 0 0)
(3.7731668e-09 0.0022665063 0 -8.2855448e-05 0 0)
(1.5657727e-08 0.00075508338 0 -9.2123718e-06 0 0)
(1.5313223e-08 -0.00075508748 0 -9.2120902e-06 0 0)
(1.7769636e-09 -0.0022665083 0 -8.2853539e-05 0 0)
(-1.1750213e-08 -0.0037803028 0 -0.00023043828 0 0)
(-9.8766818e-09 -0.0052937833 0 -0.00045204762 0 0)
(-7.1323363e-09 0.0052937886 0 -0.00045205106 0 0)
(-7.4120885e-09 0.0037803009 0 -0.00023044206 0 0)
(2.8502595e-09 0.0022665016 0 -8.285468e-05 0 0)
(1.3211778e-08 0.00075508132 0 -9.2097427e-06 0 0)
(1.2505008e-08 -0.00075508465 0 -9.2091125e-06 0 0)
(1.0071753e-09 -0.0022665036 0 -8.2852906e-05 0 0)
(-9.3863198e-09 -0.0037803004 0 -0.00023043997 0 0)
(-8.1747543e-09 -0.0052937855 0 -0.00045204969 0 0)
(-6.0857849e-09 0.0052937902 0 -0.00045205205 0 0)
(-6.9192435e-09 0.003780299 0 -0.00023044297 0 0)
(2.7754163e-09 0.002266498 0 -8.285409e-05 0 0)
(1.1689427e-08 0.00075508015 0 -9.2083136e-06 0 0)
(1.137148e-08 -0.00075508366 0 -9.2080449e-06 0 0)
(1.1632876e-09 -0.0022664998 0 -8.2852554e-05 0 0)
(-8.7098462e-09 -0.0037802986 0 -0.00023044107 0 0)
(-7.0628063e-09 -0.0052937874 0 -0.00045205078 0 0)
(-5.4572333e-09 0.0052937915 0 -0.00045205295 0 0)
(-5.6098597e-09 0.0037802975 0 -0.00023044364 0 0)
(2.1926005e-09 0.0022664953 0 -8.285375e-05 0 0)
(1.0576097e-08 0.00075507875 0 -9.2070456e-06 0 0)
(1.007194e-08 -0.00075508165 0 -9.2066092e-06 0 0)
(7.5903918e-10 -0.002266497 0 -8.2852375e-05 0 0)
(-7.1923131e-09 -0.0037802972 0 -0.00023044196 0 0)
(-6.3170223e-09 -0.005293789 0 -0.00045205182 0 0)
(-4.8873704e-09 0.0052937928 0 -0.00045205343 0 0)
(-5.7141583e-09 0.0037802963 0 -0.00023044402 0 0)
(2.3128169e-09 0.0022664924 0 -8.2853407e-05 0 0)
(9.7284694e-09 0.00075507787 0 -9.206308e-06 0 0)
(9.4179769e-09 -0.00075508073 0 -9.2060349e-06 0 0)
(1.069462e-09 -0.0022664939 0 -8.285223e-05 0 0)
(-7.1106157e-09 -0.003780296 0 -0.00023044253 0 0)
(-5.6706367e-09 -0.0052937906 0 -0.00045205241 0 0)
(-4.699192e-09 0.0052937939 0 -0.00045205387 0 0)
(-4.8184552e-09 0.0037802952 0 -0.0002304443 0 0)
(1.8152587e-09 0.0022664907 0 -8.2853201e-05 0 0)
(9.2094114e-09 0.00075507677 0 -9.2056463e-06 0 0)
(8.8257528e-09 -0.00075507918 0 -9.2053233e-06 0 0)
(7.4956602e-10 -0.0022664922 0 -8.2852186e-05 0 0)
(-6.0333933e-09 -0.003780295 0 -0.00023044301 0 0)
(-5.3792189e-09 -0.005293792 0 -0.00045205297 0 0)
(-4.3195328e-09 0.0052937952 0 -0.00045205415 0 0)
(-5.1599185e-09 0.0037802944 0 -0.00023044447 0 0)
(2.0221721e-09 0.0022664883 0 -8.2852978e-05 0 0)
(8.6522977e-09 0.00075507604 0 -9.2052076e-06 0 0)
(8.39004e-09 -0.00075507838 0 -9.2049735e-06 0 0)
(1.1071729e-09 -0.0022664896 0 -8.2852124e-05 0 0)
(-6.2063896e-09 -0.0037802941 0 -0.00023044335 0 0)
(-4.9223475e-09 -0.0052937934 0 -0.00045205335 0 0)
(-4.3141304e-09 0.0052937962 0 -0.00045205439 0 0)
(-4.4385467e-09 0.0037802935 0 -0.0002304446 0 0)
(1.5557069e-09 0.002266487 0 -8.2852825e-05 0 0)
(8.3973181e-09 0.00075507508 0 -9.2048148e-06 0 0)
(8.1158846e-09 -0.00075507708 0 -9.2045887e-06 0 0)
(7.9859394e-10 -0.0022664882 0 -8.2852112e-05 0 0)
(-5.3340522e-09 -0.0037802934 0 -0.00023044364 0 0)
(-4.8306594e-09 -0.0052937946 0 -0.00045205369 0 0)
(-4.0090972e-09 0.0052937974 0 -0.00045205459 0 0)
(-4.8697384e-09 0.0037802928 0 -0.00023044469 0 0)
(1.8029221e-09 0.0022664849 0 -8.2852662e-05 0 0)
(7.9640296e-09 0.00075507444 0 -9.2045045e-06 0 0)
(7.7688482e-09 -0.00075507637 0 -9.2043305e-06 0 0)
(1.1584292e-09 -0.0022664859 0 -8.2852074e-05 0 0)
(-5.6237389e-09 -0.0037802926 0 -0.00023044388 0 0)
(-4.4560301e-09 -0.0052937959 0 -0.00045205398 0 0)
(-4.0743604e-09 0.0052937983 0 -0.00045205475 0 0)
(-4.2110369e-09 0.0037802921 0 -0.00023044476 0 0)
(1.3574853e-09 0.0022664838 0 -8.285254e-05 0 0)
(7.8256633e-09 0.00075507355 0 -9.2042306e-06 0 0)
(7.6292982e-09 -0.00075507522 0 -9.2040854e-06 0 0)
(8.4252792e-10 -0.0022664847 0 -8.2852063e-05 0 0)
(-4.84518e-09 -0.0037802919 0 -0.00023044408 0 0)
(-4.4519342e-09 -0.005293797 0 -0.00045205422 0 0)
(-3.7954627e-09 0.0052937995 0 -0.00045205492 0 0)
(-4.6724177e-09 0.0037802915 0 -0.00023044483 0 0)
(1.6280843e-09 0.0022664819 0 -8.2852411e-05 0 0)
(7.4465514e-09 0.00075507296 0 -9.2039772e-06 0 0)
(7.3149749e-09 -0.00075507458 0 -9.2038616e-06 0 0)
(1.1917958e-09 -0.0022664827 0 -8.2852028e-05 0 0)
(-5.1970147e-09 -0.0037802912 0 -0.00023044427 0 0)
(-4.1153358e-09 -0.0052937983 0 -0.00045205446 0 0)
(-3.8861561e-09 0.0052938004 0 -0.00045205505 0 0)
(-4.0298448e-09 0.0037802908 0 -0.00023044489 0 0)
(1.2001662e-09 0.0022664808 0 -8.2852312e-05 0 0)
(7.3611371e-09 0.00075507212 0 -9.2037578e-06 0 0)
(7.2300122e-09 -0.00075507355 0 -9.2036748e-06 0 0)
(8.6403679e-10 -0.0022664816 0 -8.2852011e-05 0 0)
(-4.4632005e-09 -0.0037802906 0 -0.00023044443 0 0)
(-4.1527873e-09 -0.0052937992 0 -0.00045205465 0 0)
(-3.6142086e-09 0.0052938015 0 -0.0004520552 0 0)
(-4.4973946e-09 0.0037802902 0 -0.00023044497 0 0)
(1.4874517e-09 0.002266479 0 -8.2852207e-05 0 0)
(7.0081092e-09 0.00075507154 0 -9.2035326e-06 0 0)
(6.9265074e-09 -0.00075507293 0 -9.2034628e-06 0 0)
(1.2013713e-09 -0.0022664797 0 -8.2851971e-05 0 0)
(-4.8520047e-09 -0.00378029 0 -0.00023044458 0 0)
(-3.8360354e-09 -0.0052938005 0 -0.00045205486 0 0)
(-3.7133236e-09 0.0052938023 0 -0.00045205532 0 0)
(-3.8541964e-09 0.0037802896 0 -0.00023044503 0 0)
(1.0745366e-09 0.002266478 0 -8.2852128e-05 0 0)
(6.9489746e-09 0.00075507074 0 -9.2033408e-06 0 0)
(6.8637318e-09 -0.00075507201 0 -9.2033012e-06 0 0)
(8.6262898e-10 -0.0022664786 0 -8.2851949e-05 0 0)
(-4.1422741e-09 -0.0037802894 0 -0.00023044472 0 0)
(-3.8964246e-09 -0.0052938013 0 -0.00045205503 0 0)
(-3.4414862e-09 0.0052938035 0 -0.00045205547 0 0)
(-4.31942e-09 0.0037802891 0 -0.00023044511 0 0)
(1.3747108e-09 0.0022664763 0 -8.285204e-05 0 0)
(6.6108503e-09 0.00075507019 0 -9.2031323e-06 0 0)
(6.5636087e-09 -0.00075507141 0 -9.2030934e-06 0 0)
(1.1899403e-09 -0.0022664768 0 -8.2851904e-05 0 0)
(-4.555059e-09 -0.0037802888 0 -0.00023044485 0 0)
(-3.5917695e-09 -0.0052938025 0 -0.00045205522 0 0)
(-3.5433904e-09 0.0052938042 0 -0.00045205559 0 0)
(-3.6713321e-09 0.0037802885 0 -0.00023044518 0 0)
(9.7418274e-10 0.0022664753 0 -8.2851978e-05 0 0)
(6.5668348e-09 0.00075506943 0 -9.2029568e-06 0 0)
(6.5109415e-09 -0.00075507058 0 -9.2029447e-06 0 0)
(8.4232152e-10 -0.0022664759 0 -8.2851876e-05 0 0)
(-3.8607356e-09 -0.0037802882 0 -0.00023044497 0 0)
(-3.6671539e-09 -0.0052938033 0 -0.00045205537 0 0)
(-3.2697851e-09 0.0052938053 0 -0.00045205573 0 0)
(-4.1327104e-09 0.003780288 0 -0.00023044527 0 0)
(1.2842319e-09 0.0022664737 0 -8.2851904e-05 0 0)
(6.238965e-09 0.00075506888 0 -9.20276e-06 0 0)
(6.2125072e-09 -0.00075506999 0 -9.2027393e-06 0 0)
(1.1622078e-09 -0.0022664742 0 -8.2851829e-05 0 0)
(-4.2910012e-09 -0.0037802877 0 -0.0002304451 0 0)
(-3.3708233e-09 -0.0052938044 0 -0.00045205554 0 0)
(-3.3730749e-09 0.005293806 0 -0.00045205584 0 0)
(-3.4800212e-09 0.0037802874 0 -0.00023044535 0 0)
(8.9321523e-10 0.0022664728 0 -8.2851855e-05 0 0)
(6.20517e-09 0.00075506817 0 -9.2025962e-06 0 0)
(6.1658687e-09 -0.00075506925 0 -9.202599e-06 0 0)
(8.083409e-10 -0.0022664733 0 -8.2851798e-05 0 0)
(-3.6075386e-09 -0.0037802872 0 -0.00023044521 0 0)
(-3.4572802e-09 -0.0052938052 0 -0.00045205568 0 0)
(-3.0978004e-09 0.0052938071 0 -0.00045205599 0 0)
(-3.9385333e-09 0.003780287 0 -0.00023044544 0 0)
(1.2104861e-09 0.0022664712 0 -8.2851792e-05 0 0)
(5.8854008e-09 0.00075506764 0 -9.2024086e-06 0 0)
(5.869495e-09 -0.00075506866 0 -9.2023962e-06 0 0)
(1.1230959e-09 -0.0022664717 0 -8.285175e-05 0 0)
(-4.0499083e-09 -0.0037802867 0 -0.00023044532 0 0)
(-3.167039e-09 -0.0052938062 0 -0.00045205584 0 0)
(-3.2024404e-09 0.0052938078 0 -0.00045205609 0 0)
(-3.2829643e-09 0.0037802864 0 -0.00023044552 0 0)
(8.2637536e-10 0.0022664704 0 -8.2851753e-05 0 0)
(5.8594586e-09 0.00075506697 0 -9.2022539e-06 0 0)
(5.8276971e-09 -0.000755068 0 -9.202263e-06 0 0)
(7.6522898e-10 -0.0022664708 0 -8.2851718e-05 0 0)
(-3.3747089e-09 -0.0037802861 0 -0.00023044542 0 0)
(-3.2621923e-09 -0.0052938069 0 -0.00045205596 0 0)
(-2.9262611e-09 0.0052938087 0 -0.00045205623 0 0)
(-3.7402523e-09 0.003780286 0 -0.00023044562 0 0)
(1.1486646e-09 0.0022664689 0 -8.2851699e-05 0 0)
(5.5466517e-09 0.00075506646 0 -9.2020743e-06 0 0)
(5.5343887e-09 -0.00075506742 0 -9.2020635e-06 0 0)
(1.0767145e-09 -0.0022664693 0 -8.285167e-05 0 0)
(-3.826402e-09 -0.0037802857 0 -0.00023044553 0 0)
(-2.9766377e-09 -0.0052938079 0 -0.00045205611 0 0)
(-3.0326457e-09 0.0052938094 0 -0.00045205634 0 0)
(-3.0837655e-09 0.0037802855 0 -0.00023044571 0 0)
(7.6933246e-10 0.0022664681 0 -8.2851667e-05 0 0)
(5.5272823e-09 0.00075506584 0 -9.2019273e-06 0 0)
(5.4971757e-09 -0.00075506683 0 -9.2019368e-06 0 0)
(7.1669859e-10 -0.0022664685 0 -8.2851638e-05 0 0)
(-3.1577519e-09 -0.0037802852 0 -0.00023044563 0 0)
(-3.0788053e-09 -0.0052938086 0 -0.00045205623 0 0)
(-2.7564297e-09 0.0052938103 0 -0.00045205647 0 0)
(-3.5414067e-09 0.0037802851 0 -0.00023044581 0 0)
(1.0949034e-09 0.0022664667 0 -8.285162e-05 0 0)
(5.220821e-09 0.00075506534 0 -9.2017548e-06 0 0)
(5.2080349e-09 -0.00075506625 0 -9.2017418e-06 0 0)
(1.0263124e-09 -0.0022664671 0 -8.2851592e-05 0 0)
(-3.6166993e-09 -0.0037802847 0 -0.00023044573 0 0)
(-2.796979e-09 -0.0052938095 0 -0.00045205637 0 0)
(-2.8650402e-09 0.0052938109 0 -0.00045205657 0 0)
(-2.8857838e-09 0.0037802846 0 -0.00023044589 0 0)
(7.187641e-10 0.002266466 0 -8.2851593e-05 0 0)
(5.2072862e-09 0.00075506476 0 -9.2016146e-06 0 0)
(5.1753992e-09 -0.00075506572 0 -9.2016212e-06 0 0)
(6.6558872e-10 -0.0022664663 0 -8.2851562e-05 0 0)
(-2.9534066e-09 -0.0037802843 0 -0.00023044582 0 0)
(-2.9048994e-09 -0.0052938101 0 -0.00045205648 0 0)
(-2.5895677e-09 0.0052938118 0 -0.0004520567 0 0)
(-3.344794e-09 0.0037802842 0 -0.000230446 0 0)
(1.0463341e-09 0.0022664646 0 -8.285155e-05 0 0)
(4.9068796e-09 0.00075506429 0 -9.2014487e-06 0 0)
(4.8914312e-09 -0.00075506516 0 -9.2014315e-06 0 0)
(9.7430084e-10 -0.002266465 0 -8.2851518e-05 0 0)
(-3.4180609e-09 -0.0037802839 0 -0.00023044592 0 0)
(-2.626133e-09 -0.005293811 0 -0.00045205661 0 0)
(-2.7008232e-09 0.0052938124 0 -0.0004520568 0 0)
(-2.691455e-09 0.0037802837 0 -0.00023044608 0 0)
(6.7230867e-10 0.0022664639 0 -8.2851527e-05 0 0)
(4.8987612e-09 0.00075506376 0 -9.2013148e-06 0 0)
(4.8634021e-09 -0.00075506469 0 -9.2013168e-06 0 0)
(6.1391619e-10 -0.0022664643 0 -8.2851489e-05 0 0)
(-2.7593541e-09 -0.0037802834 0 -0.00023044601 0 0)
(-2.7388975e-09 -0.0052938116 0 -0.00045205671 0 0)
(-2.4267459e-09 0.0052938132 0 -0.00045205693 0 0)
(-3.1522388e-09 0.0037802833 0 -0.00023044618 0 0)
(1.0009906e-09 0.0022664627 0 -8.2851489e-05 0 0)
(4.604335e-09 0.0007550633 0 -9.2011552e-06 0 0)
(4.5854575e-09 -0.00075506413 0 -9.2011331e-06 0 0)
(9.2235768e-10 -0.002266463 0 -8.2851447e-05 0 0)
(-3.2286428e-09 -0.003780283 0 -0.00023044611 0 0)
(-2.4628074e-09 -0.0052938124 0 -0.00045205684 0 0)
(-2.5409633e-09 0.0052938137 0 -0.00045205702 0 0)
(-2.5021148e-09 0.0037802829 0 -0.00023044627 0 0)
(6.2841758e-10 0.002266462 0 -8.2851468e-05 0 0)
(4.6014236e-09 0.00075506281 0 -9.2010272e-06 0 0)
(4.562053e-09 -0.00075506371 0 -9.2010241e-06 0 0)
(5.6302903e-10 -0.0022664624 0 -8.2851421e-05 0 0)
(-2.5740921e-09 -0.0037802826 0 -0.00023044619 0 0)
(-2.5797944e-09 -0.0052938129 0 -0.00045205694 0 0)
(-2.2688102e-09 0.0052938145 0 -0.00045205714 0 0)
(-2.9658042e-09 0.0037802826 0 -0.00023044636 0 0)
(9.576406e-10 0.0022664609 0 -8.2851433e-05 0 0)
(4.3130452e-09 0.00075506238 0 -9.2008738e-06 0 0)
(4.2908134e-09 -0.00075506318 0 -9.2008469e-06 0 0)
(8.7157889e-10 -0.0022664612 0 -8.2851382e-05 0 0)
(-3.0473136e-09 -0.0037802823 0 -0.00023044629 0 0)
(-2.3062003e-09 -0.0052938137 0 -0.00045205706 0 0)
(-2.3862096e-09 0.005293815 0 -0.00045205723 0 0)
(-2.319431e-09 0.0037802822 0 -0.00023044645 0 0)
(5.8617072e-10 0.0022664603 0 -8.2851414e-05 0 0)
(4.3152641e-09 0.00075506192 0 -9.2007514e-06 0 0)
(4.272034e-09 -0.0007550628 0 -9.2007434e-06 0 0)
(5.1376692e-10 -0.0022664606 0 -8.2851358e-05 0 0)
(-2.3967337e-09 -0.0037802819 0 -0.00023044637 0 0)
(-2.4270067e-09 -0.0052938142 0 -0.00045205715 0 0)
(-2.1163964e-09 0.0052938157 0 -0.00045205734 0 0)
(-2.7865324e-09 0.0037802818 0 -0.00023044654 0 0)
(9.1559577e-10 0.0022664591 0 -8.2851381e-05 0 0)
(4.0330838e-09 0.00075506151 0 -9.2006042e-06 0 0)
(4.0080303e-09 -0.00075506228 0 -9.2005732e-06 0 0)
(8.2262857e-10 -0.0022664594 0 -8.2851322e-05 0 0)
(-2.8734546e-09 -0.0037802815 0 -0.00023044646 0 0)
(-2.1558694e-09 -0.005293815 0 -0.00045205726 0 0)
(-2.2371125e-09 0.0052938161 0 -0.00045205742 0 0)
(-2.1443507e-09 0.0037802815 0 -0.00023044662 0 0)
(5.4509006e-10 0.0022664586 0 -8.2851364e-05 0 0)
(4.0404305e-09 0.00075506109 0 -9.2004872e-06 0 0)
(3.9938579e-09 -0.00075506194 0 -9.2004748e-06 0 0)
(4.666083e-10 -0.0022664589 0 -8.28513e-05 0 0)
(-2.2268174e-09 -0.0037802812 0 -0.00023044654 0 0)
(-2.280245e-09 -0.0052938154 0 -0.00045205735 0 0)
(-1.9699585e-09 0.0052938169 0 -0.00045205754 0 0)
(-2.6150112e-09 0.0037802812 0 -0.00023044671 0 0)
(8.7453757e-10 0.0022664575 0 -8.2851333e-05 0 0)
(3.7646322e-09 0.00075506071 0 -9.2003462e-06 0 0)
(3.7374871e-09 -0.00075506145 0 -9.2003119e-06 0 0)
(7.758714e-10 -0.0022664578 0 -8.2851266e-05 0 0)
(-2.7067872e-09 -0.0037802809 0 -0.00023044663 0 0)
(-2.0116166e-09 -0.0052938161 0 -0.00045205746 0 0)
(-2.0940631e-09 0.0052938172 0 -0.00045205761 0 0)
(-1.9773269e-09 0.0037802808 0 -0.00023044679 0 0)
(5.0498689e-10 0.002266457 0 -8.2851317e-05 0 0)
(3.7771357e-09 0.00075506032 0 -9.2002347e-06 0 0)
(3.7278859e-09 -0.00075506113 0 -9.2002185e-06 0 0)
(4.2179029e-10 -0.0022664574 0 -8.2851246e-05 0 0)
(-2.0641514e-09 -0.0037802805 0 -0.0002304467 0 0)
(-2.1394117e-09 -0.0052938165 0 -0.00045205754 0 0)
(-1.8298112e-09 0.0052938179 0 -0.00045205772 0 0)
(-2.4515881e-09 0.0037802805 0 -0.00023044688 0 0)
(8.3438141e-10 0.002266456 0 -8.2851288e-05 0 0)
(3.5079007e-09 0.00075505996 0 -9.2001e-06 0 0)
(3.4794336e-09 -0.00075506067 0 -9.2000632e-06 0 0)
(7.3147749e-10 -0.0022664563 0 -8.2851215e-05 0 0)
(-2.5472335e-09 -0.0037802802 0 -0.00023044679 0 0)
(-1.8733936e-09 -0.0052938172 0 -0.00045205765 0 0)
(-1.957329e-09 0.0052938183 0 -0.00045205779 0 0)
(-1.8185833e-09 0.0037802802 0 -0.00023044695 0 0)
(4.658468e-10 0.0022664556 0 -8.2851273e-05 0 0)
(3.5255914e-09 0.0007550596 0 -9.1999937e-06 0 0)
(3.4743481e-09 -0.00075506038 0 -9.1999745e-06 0 0)
(3.7940072e-10 -0.0022664559 0 -8.2851197e-05 0 0)
(-1.9086927e-09 -0.0037802799 0 -0.00023044686 0 0)