/*--------------------------------*- C++ -*----------------------------------*\
| =========                 |                                                 |
| \\      /  F ield         | OpenFOAM: The Open Source CFD Toolbox           |
|  \\    /   O peration     | Version:  5.x                                   |
|   \\  /    A nd           | Web:      www.OpenFOAM.org                      |
|    \\/     M anipulation  |                                                 |
\*---------------------------------------------------------------------------*/
FoamFile
{
    version     2.0;
    format      ascii;
    class       volVectorField;
    location    "4";
    object      U;
}
// * * * * * * * * * * * * * * * * * * * * * * * * * * * * * * * * * * * * * //

dimensions      [0 1 -1 0 0 0 0];

internalField   nonuniform List<vector> 
1920
(
(-1.7770715e-07 1.0259442e-07 0)
(-5.1417109e-07 5.4589793e-08 0)
(-8.1368352e-07 -2.2767724e-08 0)
(-3.9145469e-07 -7.4956015e-08 0)
(3.9212849e-07 -7.6089714e-08 0)
(8.140882e-07 -2.1740428e-08 0)
(5.1439338e-07 5.3910157e-08 0)
(1.7763588e-07 1.0283755e-07 0)
(-7.8857397e-08 2.3007274e-07 0)
(-1.1629751e-06 4.2336785e-07 0)
(-1.7975039e-06 -5.8893841e-08 0)
(-9.0911132e-07 -6.1588286e-07 0)
(9.1070373e-07 -6.1371119e-07 0)
(1.7988826e-06 -6.0441781e-08 0)
(1.1632157e-06 4.2486923e-07 0)
(7.914647e-08 2.2969996e-07 0)
(-1.5354854e-07 6.2278403e-07 0)
(-1.7071862e-06 9.8030017e-07 0)
(-2.5624606e-06 -1.4560106e-07 0)
(-1.2136428e-06 -1.4339644e-06 0)
(1.2160493e-06 -1.436937e-06 0)
(2.5639185e-06 -1.4219546e-07 0)
(1.7082544e-06 9.7896252e-07 0)
(1.5333657e-07 6.2373561e-07 0)
(-2.0138375e-07 1.1247725e-06 0)
(-2.142731e-06 1.6592696e-06 0)
(-2.9917732e-06 -2.8182881e-07 0)
(-1.4807776e-06 -2.5019489e-06 0)
(1.4832903e-06 -2.4973982e-06 0)
(2.9939215e-06 -2.8439371e-07 0)
(2.1433225e-06 1.6628269e-06 0)
(2.0172489e-07 1.1243167e-06 0)
(-2.5741559e-07 1.7286937e-06 0)
(-2.3196749e-06 2.427238e-06 0)
(-3.2965194e-06 -4.6764256e-07 0)
(-1.530828e-06 -3.6901715e-06 0)
(1.5334157e-06 -3.6944181e-06 0)
(3.2981678e-06 -4.6197482e-07 0)
(2.3208353e-06 2.4258662e-06 0)
(2.5729691e-07 1.7304712e-06 0)
(-2.4880599e-07 2.3766658e-06 0)
(-2.4195122e-06 3.2132351e-06 0)
(-3.2939883e-06 -6.5479258e-07 0)
(-1.620195e-06 -4.9399556e-06 0)
(1.6222216e-06 -4.9339276e-06 0)
(3.2957093e-06 -6.5753558e-07 0)
(2.4200852e-06 3.2183743e-06 0)
(2.4902863e-07 2.3764285e-06 0)
(-2.6329763e-07 3.0152635e-06 0)
(-2.300218e-06 3.9970875e-06 0)
(-3.2466325e-06 -8.538761e-07 0)
(-1.4993222e-06 -6.1622567e-06 0)
(1.500799e-06 -6.1668944e-06 0)
(3.247623e-06 -8.469801e-07 0)
(2.3008567e-06 3.9960854e-06 0)
(2.6330472e-07 3.0175887e-06 0)
(-2.2362171e-07 3.6222048e-06 0)
(-2.1667778e-06 4.7295294e-06 0)
(-2.9567784e-06 -1.0327798e-06 0)
(-1.4507358e-06 -7.3271603e-06 0)
(1.4513881e-06 -7.3207682e-06 0)
(2.9573084e-06 -1.0352256e-06 0)
(2.1670368e-06 4.735292e-06 0)
(2.2363842e-07 3.6222238e-06 0)
(-2.117059e-07 4.1661536e-06 0)
(-1.8914222e-06 5.4035735e-06 0)
(-2.6869576e-06 -1.2025145e-06 0)
(-1.2455765e-06 -8.3738441e-06 0)
(1.2454249e-06 -8.3781621e-06 0)
(2.6869152e-06 -1.1956271e-06 0)
(1.8913218e-06 5.4029649e-06 0)
(2.1180498e-07 4.1685602e-06 0)
(-1.6407677e-07 4.6418788e-06 0)
(-1.6472486e-06 5.9895845e-06 0)
(-2.2797667e-06 -1.3383525e-06 0)
(-1.1202458e-06 -9.3015562e-06 0)
(1.1193928e-06 -9.2957801e-06 0)
(2.2790312e-06 -1.34034e-06 0)
(1.6471136e-06 5.9949397e-06 0)
(1.6392059e-07 4.6420305e-06 0)
(-1.4113671e-07 5.0367607e-06 0)
(-1.3391576e-06 6.4928938e-06 0)
(-1.9301671e-06 -1.4577662e-06 0)
(-9.0417924e-07 -1.0078247e-05 0)
(9.0261288e-07 -1.0081835e-05 0)
(1.9291963e-06 -1.4519182e-06 0)
(1.3384614e-06 6.492483e-06 0)
(1.4127771e-07 5.0388265e-06 0)
(-1.0075828e-07 5.3574742e-06 0)
(-1.0824472e-06 6.9021681e-06 0)
(-1.5348938e-06 -1.5442028e-06 0)
(-7.5620663e-07 -1.0722535e-05 0)
(7.5423892e-07 -1.0717983e-05 0)
(1.5332667e-06 -1.5458169e-06 0)
(1.0819998e-06 6.9063688e-06 0)
(1.0051707e-07 5.3575961e-06 0)
(-7.7348393e-08 5.6040252e-06 0)
(-8.2042362e-07 7.2315264e-06 0)
(-1.2090698e-06 -1.6146618e-06 0)
(-5.7634379e-07 -1.1225565e-05 0)
(5.7389593e-07 -1.122833e-05 0)
(1.2074935e-06 -1.6104401e-06 0)
(8.194109e-07 7.2310491e-06 0)
(7.7484981e-08 5.6054989e-06 0)
(-4.9977207e-08 5.7892216e-06 0)
(-6.1016378e-07 7.4813649e-06 0)
(-8.9968482e-07 -1.6593309e-06 0)
(-4.4511529e-07 -1.1615878e-05 0)
(4.425137e-07 -1.1612746e-05 0)
(8.9760289e-07 -1.6607973e-06 0)
(6.0951557e-07 7.4840536e-06 0)
(4.9732215e-08 5.7891791e-06 0)
(-3.1848541e-08 5.9193045e-06 0)
(-4.2687729e-07 7.6692231e-06 0)
(-6.5255893e-07 -1.6928347e-06 0)
(-3.2012719e-07 -1.1898037e-05 0)
(3.1723322e-07 -1.1900124e-05 0)
(6.5064317e-07 -1.6904129e-06 0)
(4.2576229e-07 7.6684201e-06 0)
(3.1948213e-08 5.9201013e-06 0)
(-1.7184316e-08 6.0078463e-06 0)
(-2.8436195e-07 7.8005732e-06 0)
(-4.4974551e-07 -1.7093242e-06 0)
(-2.2412087e-07 -1.2101005e-05 0)
(2.2117728e-07 -1.2099211e-05 0)
(4.4746853e-07 -1.7109352e-06 0)
(2.8357062e-07 7.8016817e-06 0)
(1.6978407e-08 6.0075355e-06 0)
(-5.7942241e-09 6.0622877e-06 0)
(-1.7792173e-07 7.8918918e-06 0)
(-2.9192642e-07 -1.7201356e-06 0)
(-1.5122993e-07 -1.2234021e-05 0)
(1.4809694e-07 -1.2235696e-05 0)
(2.8978797e-07 -1.7194455e-06 0)
(1.767909e-07 7.8905175e-06 0)
(5.8408942e-09 6.0624116e-06 0)
(-4.5117043e-10 6.0936223e-06 0)
(-9.7103208e-08 7.9489706e-06 0)
(-1.8103887e-07 -1.7214798e-06 0)
(-9.1400672e-08 -1.2320488e-05 0)
(8.8240261e-08 -1.2319819e-05 0)
(1.7865855e-07 -1.7235391e-06 0)
(9.6184323e-08 7.9485566e-06 0)
(2.9146777e-10 6.0929502e-06 0)
(5.4400974e-09 6.1076578e-06 0)
(-4.7877628e-08 7.9845559e-06 0)
(-9.595799e-08 -1.7212673e-06 0)
(-5.7212939e-08 -1.2368742e-05 0)
(5.3941886e-08 -1.2370279e-05 0)
(9.3658423e-08 -1.7221585e-06 0)
(4.6749557e-08 7.9823856e-06 0)
(-5.446376e-09 6.1071319e-06 0)
(5.3644521e-09 6.1116865e-06 0)
(-1.0377567e-08 8.0026444e-06 0)
(-4.8216101e-08 -1.7167673e-06 0)
(-2.4969202e-08 -1.2394692e-05 0)
(2.1702544e-08 -1.2394931e-05 0)
(4.5804897e-08 -1.719533e-06 0)
(9.3644301e-09 8.0007945e-06 0)
(-5.48677e-09 6.1105706e-06 0)
(7.9087813e-09 6.1091125e-06 0)
(4.4537091e-09 8.0116134e-06 0)
(-1.0367979e-08 -1.7129511e-06 0)
(-1.4431123e-08 -1.2403629e-05 0)
(1.1179554e-08 -1.2405257e-05 0)
(8.0296641e-09 -1.7152622e-06 0)
(-5.5457935e-09 8.008485e-06 0)
(-7.9550163e-09 6.1079619e-06 0)
(5.443889e-09 6.1039391e-06 0)
(1.7595651e-08 8.0134188e-06 0)
(1.8722293e-09 -1.7077539e-06 0)
(9.7672888e-10 -1.240479e-05 0)
(-4.1170013e-09 -1.2405744e-05 0)
(-4.1604976e-09 -1.7113767e-06 0)
(-1.8614819e-08 8.0102435e-06 0)
(-5.5366031e-09 6.1023326e-06 0)
(6.5147822e-09 6.0976054e-06 0)
(1.5944182e-08 8.0127845e-06 0)
(1.4908491e-08 -1.7040017e-06 0)
(-3.4536575e-10 -1.2400558e-05 0)
(-2.6039623e-09 -1.2402407e-05 0)
(-1.7061029e-08 -1.7075501e-06 0)
(-1.6916213e-08 8.0086553e-06 0)
(-6.5805603e-09 6.0958778e-06 0)
(3.4584419e-09 6.0918705e-06 0)
(1.8498576e-08 8.0102312e-06 0)
(1.1249106e-08 -1.7001609e-06 0)
(6.8357834e-09 -1.2395518e-05 0)
(-9.5121405e-09 -1.2397027e-05 0)
(-1.3179857e-08 -1.7046414e-06 0)
(-1.9392805e-08 8.0059071e-06 0)
(-3.5221906e-09 6.0897924e-06 0)
(4.2111894e-09 6.0870113e-06 0)
(1.1244203e-08 8.0080316e-06 0)
(1.4283277e-08 -1.6977016e-06 0)
(9.4995475e-10 -1.239016e-05 0)
(-3.2481646e-09 -1.2392254e-05 0)
(-1.5982905e-08 -1.7022459e-06 0)
(-1.1983202e-08 8.0030133e-06 0)
(-4.2755331e-09 6.0848036e-06 0)
(1.3592767e-09 6.0835626e-06 0)
(1.094493e-08 8.005986e-06 0)
(5.7435476e-09 -1.6955413e-06 0)
(5.1673442e-09 -1.238639e-05 0)
(-7.051075e-09 -1.2388295e-05 0)
(-7.0766721e-09 -1.700725e-06 0)
(-1.1585897e-08 8.0007855e-06 0)
(-1.3902544e-09 6.0811082e-06 0)
(2.2996063e-09 6.0813079e-06 0)
(3.2338347e-09 8.0050033e-06 0)
(6.4701624e-09 -1.6944012e-06 0)
(-1.6715155e-09 -1.238381e-05 0)
(2.9784531e-10 -1.2386096e-05 0)
(-7.5033458e-09 -1.6996303e-06 0)
(-3.6468986e-09 7.9993513e-06 0)
(-2.3470284e-09 6.0787708e-06 0)
(-1.4938525e-10 6.0802636e-06 0)
(3.3647172e-09 8.0046615e-06 0)
(-2.1231308e-09 -1.6935553e-06 0)
(2.0993121e-09 -1.2383053e-05 0)
(-2.9832764e-09 -1.2385194e-05 0)
(1.5354599e-09 -1.6991703e-06 0)
(-3.6731991e-09 7.9989387e-06 0)
(1.5365438e-10 6.0775884e-06 0)
(1.0887593e-09 6.0801103e-06 0)
(-3.1217274e-09 8.0052436e-06 0)
(-7.0575082e-10 -1.6933618e-06 0)
(-4.3631475e-09 -1.2383475e-05 0)
(4.030057e-09 -1.2385851e-05 0)
(4.2891073e-10 -1.6989204e-06 0)
(3.0712586e-09 7.999302e-06 0)
(-1.1121924e-09 6.0774281e-06 0)
(-1.0186947e-09 6.0807242e-06 0)
(-1.7323078e-09 8.0063515e-06 0)
(-7.9597365e-09 -1.6933468e-06 0)
(-1.9033281e-10 -1.2385237e-05 0)
(3.3069268e-10 -1.2387458e-05 0)
(8.1315102e-09 -1.6990677e-06 0)
(1.7665797e-09 8.0004918e-06 0)
(1.0561355e-09 6.078009e-06 0)
(4.5907266e-10 6.0818433e-06 0)
(-6.9049795e-09 8.0080468e-06 0)
(-5.2365911e-09 -1.6937149e-06 0)
(-6.0498076e-09 -1.2387746e-05 0)
(6.6905975e-09 -1.2390089e-05 0)
(5.6677172e-09 -1.6992507e-06 0)
(7.1891406e-09 8.0021759e-06 0)
(-4.5943226e-10 6.0792013e-06 0)
(-1.4302688e-09 6.0833578e-06 0)
(-4.4319114e-09 8.0100292e-06 0)
(-1.1209026e-08 -1.6941506e-06 0)
(-1.3954828e-09 -1.2391052e-05 0)
(2.4158773e-09 -1.2393213e-05 0)
(1.2029742e-08 -1.6996638e-06 0)
(4.7573174e-09 8.0043879e-06 0)
(1.4940752e-09 6.0807716e-06 0)
(1.939936e-10 6.085094e-06 0)
(-8.6915989e-09 8.0123189e-06 0)
(-7.4507962e-09 -1.6948038e-06 0)
(-6.8091279e-09 -1.2394699e-05 0)
(8.2150783e-09 -1.23969e-05 0)
(8.4354007e-09 -1.7000162e-06 0)
(9.2331618e-09 8.0068306e-06 0)
(-1.7761841e-10 6.0826474e-06 0)
(-1.5795506e-09 6.0869941e-06 0)
(-5.5399589e-09 8.0147058e-06 0)
(-1.2583926e-08 -1.6954479e-06 0)
(-1.8360434e-09 -1.2398754e-05 0)
(3.4833924e-09 -1.2400745e-05 0)
(1.3863642e-08 -1.7005022e-06 0)
(6.0667231e-09 8.0095601e-06 0)
(1.6602034e-09 6.0846669e-06 0)
(1.1699615e-10 6.088953e-06 0)
(-9.2913159e-09 8.0172291e-06 0)
(-8.2172519e-09 -1.6962191e-06 0)
(-7.0085164e-09 -1.240288e-05 0)
(8.8992821e-09 -1.2404857e-05 0)
(9.5479845e-09 -1.7008921e-06 0)
(9.9898056e-09 8.0123457e-06 0)
(-9.2447017e-11 6.0868081e-06 0)
(-1.6038628e-09 6.0909579e-06 0)
(-5.7973644e-09 8.0197378e-06 0)
(-1.2908433e-08 -1.6969356e-06 0)
(-1.8882338e-09 -1.2407187e-05 0)
(3.8735036e-09 -1.2408938e-05 0)
(1.4432023e-08 -1.7013682e-06 0)
(6.4247365e-09 8.0152622e-06 0)
(1.6916175e-09 6.0889677e-06 0)
(1.1958125e-10 6.0929447e-06 0)
(-9.3119772e-09 8.0222995e-06 0)
(-8.2597824e-09 -1.6977341e-06 0)
(-6.9621041e-09 -1.241142e-05 0)
(9.0538259e-09 -1.2413128e-05 0)
(9.7277808e-09 -1.7017475e-06 0)
(1.0068247e-08 8.0181399e-06 0)
(-9.5006232e-11 6.091154e-06 0)
(-1.5802517e-09 6.0949289e-06 0)
(-5.6833682e-09 8.0247937e-06 0)
(-1.2759616e-08 -1.6984529e-06 0)
(-1.8072413e-09 -1.2415719e-05 0)
(3.8647256e-09 -1.24172e-05 0)
(1.4330892e-08 -1.7021929e-06 0)
(6.3209179e-09 8.0210596e-06 0)
(1.6670195e-09 6.0933023e-06 0)
(1.4693568e-10 6.0968663e-06 0)
(-9.1071379e-09 8.0273096e-06 0)
(-8.0196363e-09 -1.6992326e-06 0)
(-6.8547156e-09 -1.2419881e-05 0)
(8.9078967e-09 -1.2421307e-05 0)
(9.4500129e-09 -1.702555e-06 0)
(9.8398959e-09 8.0238977e-06 0)
(-1.2851511e-10 6.0954346e-06 0)
(-1.5446037e-09 6.0987871e-06 0)
(-5.4493955e-09 8.0297394e-06 0)
(-1.2454299e-08 -1.6999202e-06 0)
(-1.7205462e-09 -1.2424059e-05 0)
(3.6435081e-09 -1.2425268e-05 0)
(1.3921947e-08 -1.7029753e-06 0)
(6.0289787e-09 8.0267317e-06 0)
(1.6248481e-09 6.097509e-06 0)
(1.7639454e-10 6.1006547e-06 0)
(-8.8462663e-09 8.0321845e-06 0)
(-7.7134237e-09 -1.7006592e-06 0)
(-6.7657786e-09 -1.2428078e-05 0)
(8.6087815e-09 -1.2429236e-05 0)
(8.9821745e-09 -1.703329e-06 0)
(9.4994016e-09 8.0294703e-06 0)
(-1.6782131e-10 6.0995511e-06 0)
(-1.5102452e-09 6.1025059e-06 0)
(-5.2032916e-09 8.0345405e-06 0)
(-1.2132168e-08 -1.7013012e-06 0)
(-1.6704684e-09 -1.2432095e-05 0)
(3.3236007e-09 -1.2433058e-05 0)
(1.3398379e-08 -1.7037369e-06 0)
(5.6824866e-09 8.0321825e-06 0)
(1.5810329e-09 6.1015325e-06 0)
(2.0119744e-10 6.1043056e-06 0)
(-8.5937465e-09 8.0369145e-06 0)
(-7.4231959e-09 -1.7019904e-06 0)
(-6.7126144e-09 -1.2435953e-05 0)
(8.2447802e-09 -1.2436877e-05 0)
(8.4589724e-09 -1.7040929e-06 0)
(9.1364043e-09 8.0347999e-06 0)
(-2.0387845e-10 6.1034772e-06 0)
(-1.480196e-09 6.1060926e-06 0)
(-4.978516e-09 8.0392018e-06 0)
(-1.1836547e-08 -1.7025822e-06 0)
(-1.6558164e-09 -1.2439804e-05 0)
(2.9710323e-09 -1.244056e-05 0)
(1.2853305e-08 -1.7044991e-06 0)
(5.3382362e-09 8.0373809e-06 0)
(1.5407319e-09 6.105365e-06 0)
(2.2104654e-10 6.1078316e-06 0)
(-8.3639343e-09 8.0415109e-06 0)
(-7.1649832e-09 -1.7032197e-06 0)
(-6.684606e-09 -1.2443503e-05 0)
(7.8666014e-09 -1.2444237e-05 0)
(7.9414737e-09 -1.7048646e-06 0)
(8.7862896e-09 8.039874e-06 0)
(-2.3466386e-10 6.1072162e-06 0)
(-1.4537203e-09 6.1095612e-06 0)
(-4.7766166e-09 8.0437366e-06 0)
(-1.1567942e-08 -1.703762e-06 0)
(-1.6594679e-09 -1.2447195e-05 0)
(2.6226095e-09 -1.2447789e-05 0)
(1.2326757e-08 -1.7052753e-06 0)
(5.0158082e-09 8.0423266e-06 0)
(1.504687e-09 6.109016e-06 0)
(2.3753619e-10 6.1112457e-06 0)
(-8.1520428e-09 8.045986e-06 0)
(-6.929279e-09 -1.7043494e-06 0)
(-6.6635457e-09 -1.2450743e-05 0)
(7.5019449e-09 -1.2451334e-05 0)
(7.4535091e-09 -1.7056533e-06 0)
(8.4593881e-09 8.0447001e-06 0)
(-2.6068971e-10 6.1107809e-06 0)
(-1.4292676e-09 6.1129226e-06 0)
(-4.5890223e-09 8.0481544e-06 0)
(-1.1313069e-08 -1.7048459e-06 0)
(-1.6628961e-09 -1.2454285e-05 0)
(2.2974786e-09 -1.2454764e-05 0)
(1.183272e-08 -1.70607e-06 0)
(4.7186583e-09 8.0470317e-06 0)
(1.4721867e-09 6.1124998e-06 0)
(2.5232208e-10 6.1145559e-06 0)
(-7.9488307e-09 8.0503461e-06 0)
(-6.7010491e-09 -1.7053871e-06 0)
(-6.6333325e-09 -1.2457692e-05 0)
(7.1644835e-09 -1.2458184e-05 0)
(7.0013423e-09 -1.7064599e-06 0)
(8.1557397e-09 8.0492933e-06 0)
(-2.8309146e-10 6.1141852e-06 0)
(-1.4055364e-09 6.1161819e-06 0)
(-4.4064781e-09 8.0524579e-06 0)
(-1.1058022e-08 -1.7058425e-06 0)
(-1.6521053e-09 -1.2461093e-05 0)
(2.0040377e-09 -1.2461497e-05 0)
(1.1373205e-08 -1.7068813e-06 0)
(4.4441773e-09 8.0515125e-06 0)
(1.4422599e-09 6.1158294e-06 0)
(2.6658695e-10 6.1177648e-06 0)
(-7.7463622e-09 8.0545909e-06 0)
(-6.4678092e-09 -1.7063423e-06 0)
(-6.5832653e-09 -1.2464366e-05 0)
(6.8593312e-09 -1.2464797e-05 0)
(6.583498e-09 -1.70728e-06 0)
(7.8718597e-09 8.0536702e-06 0)
(-3.0294612e-10 6.1174413e-06 0)
(-1.3817078e-09 6.1193398e-06 0)
(-4.2222043e-09 8.0566443e-06 0)
(-1.0792887e-08 -1.706762e-06 0)
(-1.6189215e-09 -1.2467631e-05 0)
(1.744166e-09 -1.2467997e-05 0)
(1.094515e-08 -1.7077027e-06 0)
(4.1880656e-09 8.0557851e-06 0)
(1.4140708e-09 6.1190159e-06 0)
(2.8101743e-10 6.1208717e-06 0)
(-7.5395282e-09 8.0587156e-06 0)
(-6.2217675e-09 -1.7072257e-06 0)
(-6.5081319e-09 -1.2470776e-05 0)
(6.5864871e-09 -1.2471179e-05 0)
(6.1954698e-09 -1.7081057e-06 0)
(7.6035766e-09 8.057846e-06 0)
(-3.2109741e-10 6.1205588e-06 0)
(-1.3573813e-09 6.1223942e-06 0)
(-4.0323162e-09 8.0607071e-06 0)
(-1.0512383e-08 -1.7076147e-06 0)
(-1.5602174e-09 -1.2473911e-05 0)
(1.5159428e-09 -1.2474266e-05 0)
(1.0543717e-08 -1.7085256e-06 0)
(3.9460673e-09 8.0598637e-06 0)
(1.3869999e-09 6.1220676e-06 0)
(2.9593057e-10 6.1238734e-06 0)
(-7.3258661e-09 8.0627125e-06 0)
(-5.9594746e-09 -1.7080471e-06 0)
(-6.407035e-09 -1.2476931e-05 0)
(6.3430959e-09 -1.2477329e-05 0)
(5.8319454e-09 -1.7089284e-06 0)
(7.3471103e-09 8.0618338e-06 0)
(-3.3815557e-10 6.123545e-06 0)
(-1.332444e-09 6.1253416e-06 0)
(-3.8352804e-09 8.0646381e-06 0)
(-1.0215011e-08 -1.7084102e-06 0)
(-1.4764956e-09 -1.2479938e-05 0)
(1.3154626e-09 -1.2480302e-05 0)
(1.0163843e-08 -1.7093413e-06 0)
(3.7145769e-09 8.0637601e-06 0)
(1.3606245e-09 6.1249908e-06 0)
(3.1140835e-10 6.1267662e-06 0)
(-7.1048779e-09 8.0665736e-06 0)
(-5.6806998e-09 -1.7088156e-06 0)
(-6.2819602e-09 -1.2482836e-05 0)
(6.1249566e-09 -1.2483247e-05 0)
(5.4878552e-09 -1.7097393e-06 0)
(7.0994156e-09 8.0656444e-06 0)
(-3.5454147e-10 6.1264053e-06 0)
(-1.3069542e-09 6.1281782e-06 0)
(-3.6311844e-09 8.0684292e-06 0)
(-9.9018742e-09 -1.7091568e-06 0)
(-1.3705028e-09 -1.2485718e-05 0)
(1.1380459e-09 -1.2486105e-05 0)
(9.8009751e-09 -1.7101415e-06 0)
(3.4907909e-09 8.0674841e-06 0)
(1.3346776e-09 6.1277901e-06 0)
(3.2739995e-10 6.1295465e-06 0)
(-6.8773375e-09 8.070291e-06 0)
(-5.387276e-09 -1.7095389e-06 0)
(-6.1365249e-09 -1.2488494e-05 0)
(5.9275071e-09 -1.2488929e-05 0)
(5.1588492e-09 -1.7105307e-06 0)
(6.8582334e-09 8.0692861e-06 0)
(-3.7053134e-10 6.1291435e-06 0)
(-1.2810587e-09 6.1309007e-06 0)
(-3.4211043e-09 8.0720733e-06 0)
(-9.5756269e-09 -1.7098614e-06 0)
(-1.246127e-09 -1.2491252e-05 0)
(9.7901345e-10 -1.249167e-05 0)
(9.4513747e-09 -1.7109191e-06 0)
(3.2726852e-09 8.0710429e-06 0)
(1.3090091e-09 6.1304688e-06 0)
(3.437888e-10 6.1322112e-06 0)
(-6.6447415e-09 8.0738583e-06 0)
(-5.0821729e-09 -1.7102231e-06 0)
(-5.9750445e-09 -1.2493909e-05 0)
(5.7464277e-09 -1.2494373e-05 0)
(4.8414768e-09 -1.7112963e-06 0)
(6.6220281e-09 8.0727657e-06 0)
(-3.8629369e-10 6.1317624e-06 0)
(-1.2549416e-09 6.1335064e-06 0)
(-3.2066389e-09 8.0755646e-06 0)
(-9.2396835e-09 -1.7105294e-06 0)
(-1.1076232e-09 -1.2496544e-05 0)
(8.341377e-10 -1.2496996e-05 0)
(9.1122099e-09 -1.7116683e-06 0)
(3.0589229e-09 8.0744424e-06 0)
(1.2835547e-09 6.1330293e-06 0)
(3.6043283e-10 6.1347581e-06 0)
(-6.4089233e-09 8.0772706e-06 0)
(-4.7688393e-09 -1.7108731e-06 0)
(-5.8019091e-09 -1.2499082e-05 0)
(5.5779669e-09 -1.2499578e-05 0)
(4.5332003e-09 -1.7120311e-06 0)
(6.3898819e-09 8.0760883e-06 0)
(-4.0191748e-10 6.1342643e-06 0)
(-1.2287938e-09 6.1359935e-06 0)
(-2.9895944e-09 8.0788992e-06 0)
(-8.8976841e-09 -1.7111653e-06 0)
(-9.5912485e-10 -1.2501595e-05 0)
(6.9986239e-10 -1.2502082e-05 0)
(8.7815126e-09 -1.7123849e-06 0)
(2.8487392e-09 8.0776872e-06 0)
(1.2583114e-09 6.1354736e-06 0)
(3.7718688e-10 6.137186e-06 0)
(-6.1718013e-09 8.0805248e-06 0)
(-4.4507761e-09 -1.7114926e-06 0)
(-5.6212113e-09 -1.2504015e-05 0)
(5.4190741e-09 -1.2504541e-05 0)
(4.2323137e-09 -1.7127315e-06 0)
(6.1613745e-09 8.0792581e-06 0)
(-4.1743433e-10 6.1366509e-06 0)
(-1.2027971e-09 6.1383614e-06 0)
(-2.7717866e-09 8.0820746e-06 0)
(-8.5531617e-09 -1.711772e-06 0)
(-8.0437047e-10 -1.2506408e-05 0)
(5.7336462e-10 -1.2506927e-05 0)
(8.4580696e-09 -1.7130661e-06 0)
(2.6418191e-09 8.0807812e-06 0)
(1.2333179e-09 6.1378036e-06 0)
(3.939145e-10 6.1394947e-06 0)
(-5.9352256e-09 8.0836194e-06 0)
(-4.1312818e-09 -1.7120844e-06 0)
(-5.4365566e-09 -1.2508712e-05 0)
(5.2674066e-09 -1.2509265e-05 0)
(3.9378134e-09 -1.7133952e-06 0)
(5.9364641e-09 8.0822784e-06 0)
(-4.3283623e-10 6.1389241e-06 0)
(-1.1771157e-09 6.1406104e-06 0)
(-2.554924e-09 8.0850904e-06 0)
(-8.2093527e-09 -1.712352e-06 0)
(-6.4658065e-10 -1.2510986e-05 0)
(4.5252014e-10 -1.2511533e-05 0)
(8.141281e-09 -1.7137099e-06 0)
(2.438182e-09 8.0837275e-06 0)
(1.208639e-09 6.1400209e-06 0)
(4.104932e-10 6.1416848e-06 0)
(-5.7008918e-09 8.0865546e-06 0)
(-3.8133171e-09 -1.7126503e-06 0)
(-5.2509923e-09 -1.2513175e-05 0)
(5.1212644e-09 -1.2513751e-05 0)
(3.6492503e-09 -1.7140209e-06 0)
(5.7153778e-09 8.0851526e-06 0)
(-4.4808936e-10 6.1410855e-06 0)
(-1.1518937e-09 6.1427414e-06 0)
(-2.340545e-09 8.0879473e-06 0)
(-7.8691039e-09 -1.7129068e-06 0)
(-4.8842833e-10 -1.2515332e-05 0)
(3.3581584e-10 -1.2515901e-05 0)
(7.8310127e-09 -1.7143156e-06 0)
(2.2380785e-09 8.0865292e-06 0)
(1.1843537e-09 6.1421273e-06 0)
(4.2681658e-10 6.1437579e-06 0)
(-5.4702964e-09 8.0893317e-06 0)
(-3.4994448e-09 -1.7131916e-06 0)
(-5.0670099e-09 -1.2517408e-05 0)
(4.9794897e-09 -1.2518001e-05 0)
(3.366585e-09 -1.7146083e-06 0)
(5.4985153e-09 8.0878836e-06 0)
(-4.6314504e-10 6.1431372e-06 0)
(-1.1272537e-09 6.1447564e-06 0)
(-2.129988e-09 8.0906473e-06 0)
(-7.5348406e-09 -1.7134375e-06 0)
(-3.3206314e-10 -1.2519451e-05 0)
(2.222419e-10 -1.2520037e-05 0)
(7.527458e-09 -1.7148832e-06 0)
(2.0419018e-09 8.0891894e-06 0)
(1.1605456e-09 6.144125e-06 0)
(4.4279456e-10 6.1457161e-06 0)
(-5.24472e-09 8.0919536e-06 0)
(-3.1918175e-09 -1.7137095e-06 0)
(-4.8865862e-09 -1.2521417e-05 0)
(4.841357e-09 -1.2522021e-05 0)
(3.0900571e-09 -1.7151577e-06 0)
(5.2863704e-09 8.0904746e-06 0)
(-4.7794806e-10 6.1450812e-06 0)
(-1.1032978e-09 6.1466578e-06 0)
(-1.9243832e-09 8.0931937e-06 0)
(-7.2085692e-09 -1.713945e-06 0)
(-1.7916306e-10 -1.2523348e-05 0)
(1.111822e-10 -1.2523944e-05 0)
(7.2310173e-09 -1.7154133e-06 0)
(1.8501169e-09 8.0917113e-06 0)
(1.1372965e-09 6.1460162e-06 0)
(4.5835282e-10 6.1475621e-06 0)
(-5.0252262e-09 8.0944238e-06 0)
(-2.8921914e-09 -1.7142043e-06 0)
(-4.7112428e-09 -1.2525205e-05 0)
(4.7064688e-09 -1.2525815e-05 0)
(2.8200755e-09 -1.7156699e-06 0)
(5.0794688e-09 8.0929287e-06 0)
(-4.9244252e-10 6.14692e-06 0)
(-1.080108e-09 6.1484487e-06 0)
(-1.7246563e-09 8.0955905e-06 0)
(-6.8919003e-09 -1.7144297e-06 0)
(-3.0995951e-11 -1.2527028e-05 0)
(2.3150155e-12 -1.2527629e-05 0)
(6.9422013e-09 -1.7159068e-06 0)
(1.6632056e-09 8.094098e-06 0)
(1.1146815e-09 6.1478036e-06 0)
(4.7343183e-10 6.1492994e-06 0)
(-4.8126703e-09 8.0967466e-06 0)
(-2.6019538e-09 -1.7146767e-06 0)
(-4.5421086e-09 -1.252878e-05 0)
(4.5746635e-09 -1.252939e-05 0)
(2.5571312e-09 -1.7161461e-06 0)
(4.8783216e-09 8.0952494e-06 0)
(-5.0657611e-10 6.1486564e-06 0)
(-1.0577483e-09 6.1501326e-06 0)
(-1.5315395e-09 8.0978424e-06 0)
(-6.5860813e-09 -1.7148921e-06 0)
(1.1151842e-10 -1.2530497e-05 0)
(-1.044719e-10 -1.2531097e-05 0)
(6.6615543e-09 -1.7163652e-06 0)
(1.4816269e-09 8.0963533e-06 0)
(1.0927661e-09 6.1494899e-06 0)
(4.8798571e-10 6.1509315e-06 0)
(-4.6077124e-09 8.0989271e-06 0)
(-2.3221581e-09 -1.715127e-06 0)
(-4.3799823e-09 -1.2532147e-05 0)
(4.4459407e-09 -1.2532753e-05 0)
(2.3017304e-09 -1.7165878e-06 0)
(4.6833929e-09 8.0974404e-06 0)
(-5.203026e-10 6.1502934e-06 0)
(-1.0362661e-09 6.1517133e-06 0)
(-1.3455858e-09 8.0999547e-06 0)
(-6.2920332e-09 -1.7153324e-06 0)
(2.4775037e-10 -1.2533762e-05 0)
(-2.0914996e-10 -1.2534357e-05 0)
(6.3895994e-09 -1.7167901e-06 0)
(1.3057897e-09 8.0984809e-06 0)
(1.0716046e-09 6.1510783e-06 0)
(5.01981e-10 6.1524624e-06 0)
(-4.4108345e-09 8.1009708e-06 0)
(-2.0535601e-09 -1.7155555e-06 0)
(-4.2253878e-09 -1.2535314e-05 0)
(4.3204001e-09 -1.2535911e-05 0)
(2.0543476e-09 -1.7169969e-06 0)
(4.4950784e-09 8.0995057e-06 0)
(-5.3358349e-10 6.151834e-06 0)
(-1.0156932e-09 6.1531948e-06 0)
(-1.1671858e-09 8.1019328e-06 0)
(-6.0103887e-09 -1.7157511e-06 0)
(3.7730898e-10 -1.253683e-05 0)
(-3.1160361e-10 -1.2537416e-05 0)
(6.1268002e-09 -1.7171832e-06 0)
(1.1360349e-09 8.1004848e-06 0)
(1.0512393e-09 6.152572e-06 0)
(5.1539542e-10 6.1538961e-06 0)
(-4.2223581e-09 8.1028834e-06 0)
(-1.7966542e-09 -1.7159624e-06 0)
(-4.0786234e-09 -1.2538287e-05 0)
(4.1981968e-09 -1.2538872e-05 0)
(1.8153933e-09 -1.717375e-06 0)
(4.3136931e-09 8.1014494e-06 0)
(-5.4638863e-10 6.1532818e-06 0)
(-9.9604807e-10 6.1545814e-06 0)
(-9.9658497e-10 8.1037828e-06 0)
(-5.7415285e-09 -1.7161483e-06 0)
(4.9999732e-10 -1.2539709e-05 0)
(-4.1167086e-10 -1.2540283e-05 0)
(5.8735358e-09 -1.7175464e-06 0)
(9.7262678e-10 8.1023694e-06 0)
(1.0317006e-09 6.1539746e-06 0)
(5.2821681e-10 6.1552371e-06 0)
(-4.0424626e-09 8.1046707e-06 0)
(-1.551709e-09 -1.7163483e-06 0)
(-3.9398047e-09 -1.2541076e-05 0)
(4.0795068e-09 -1.2541644e-05 0)
(1.5851943e-09 -1.717724e-06 0)
(4.1394667e-09 8.1032758e-06 0)
(-5.5869642e-10 6.1546401e-06 0)
(-9.7733724e-10 6.1558773e-06 0)
(-8.3390138e-10 8.1055105e-06 0)
(-5.4856171e-09 -1.7165246e-06 0)
(6.1577403e-10 -1.2542407e-05 0)
(-5.0917339e-10 -1.2542964e-05 0)
(5.6300876e-09 -1.7178815e-06 0)
(8.1574924e-10 8.1041389e-06 0)
(1.0130076e-09 6.1552896e-06 0)
(5.4044164e-10 6.1564896e-06 0)
(-3.8712035e-09 8.1063389e-06 0)
(-1.3187998e-09 -1.7167133e-06 0)
(-3.8089009e-09 -1.2543686e-05 0)
(3.9645031e-09 -1.2544237e-05 0)
(1.3639832e-09 -1.7180458e-06 0)
(3.9725425e-09 8.1049894e-06 0)
(-5.7049326e-10 6.1559128e-06 0)
(-9.5955665e-10 6.157087e-06 0)
(-6.7914259e-10 8.107122e-06 0)
(-5.242635e-09 -1.7168802e-06 0)
(7.2472078e-10 -1.2544931e-05 0)
(-6.0393779e-10 -1.254547e-05 0)
(5.3966342e-09 -1.7181904e-06 0)
(6.6550704e-10 8.105798e-06 0)
(9.9516887e-10 6.1565207e-06 0)
(5.5207417e-10 6.157658e-06 0)
(-3.70853e-09 8.1078939e-06 0)
(-1.0978391e-09 -1.717058e-06 0)
(-3.6857665e-09 -1.2546127e-05 0)
(3.8533392e-09 -1.2546657e-05 0)
(1.1518957e-09 -1.7183422e-06 0)
(3.8129817e-09 8.1065948e-06 0)
(-5.8177327e-10 6.1571033e-06 0)
(-9.4269333e-10 6.1582147e-06 0)
(-5.3222199e-10 8.1086233e-06 0)
(-5.0124093e-09 -1.7172156e-06 0)
(8.2701455e-10 -1.254729e-05 0)
(-6.958099e-10 -1.2547808e-05 0)
(5.1732512e-09 -1.7184748e-06 0)
(5.2192974e-10 8.1073511e-06 0)
(9.7818358e-10 6.1576716e-06 0)
(5.6312515e-10 6.1587465e-06 0)
(-3.5543009e-09 8.1093417e-06 0)
(-8.8860502e-10 -1.7173827e-06 0)
(-3.570167e-09 -1.2548406e-05 0)
(3.7461384e-09 -1.2548915e-05 0)
(9.4897178e-10 -1.718615e-06 0)
(3.6607687e-09 8.1080965e-06 0)
(-5.9253742e-10 6.1582155e-06 0)
(-9.2672683e-10 6.1592646e-06 0)
(-3.9297403e-10 8.1100203e-06 0)
(-4.7946409e-09 -1.7175312e-06 0)
(9.2290458e-10 -1.254949e-05 0)
(-7.8466439e-10 -1.2549987e-05 0)
(4.9599167e-09 -1.7187365e-06 0)
(3.849775e-10 8.108803e-06 0)
(9.6204255e-10 6.1587459e-06 0)
(5.7361075e-10 6.1597593e-06 0)
(-3.408301e-09 8.110688e-06 0)
(-6.9076561e-10 -1.7176881e-06 0)
(-3.4618018e-09 -1.2550531e-05 0)
(3.6429875e-09 -1.2551017e-05 0)
(7.5516146e-10 -1.7188659e-06 0)
(3.515819e-09 8.1094992e-06 0)
(-6.0279268e-10 6.159253e-06 0)
(-9.1163053e-10 6.1602409e-06 0)
(-2.6116834e-10 8.1113186e-06 0)
(-4.5889294e-09 -1.7178277e-06 0)
(1.0126929e-09 -1.2551541e-05 0)
(-8.7041007e-10 -1.2552015e-05 0)
(4.7565182e-09 -1.7189771e-06 0)
(2.5454853e-10 8.110158e-06 0)
(9.4672952e-10 6.1597472e-06 0)
(5.8355173e-10 6.1607005e-06 0)
(-3.2702543e-09 8.1119385e-06 0)
(-5.0390204e-10 -1.7179746e-06 0)
(-3.3603224e-09 -1.255251e-05 0)
(3.5439345e-09 -1.2552972e-05 0)
(5.7033215e-10 -1.7190964e-06 0)
(3.3779867e-09 8.1108074e-06 0)
(-6.1255129e-10 6.1602193e-06 0)
(-8.9737277e-10 6.1611476e-06 0)
(-1.3652248e-10 8.1125238e-06 0)
(-4.3947952e-09 -1.7181056e-06 0)
(1.0967183e-09 -1.2553448e-05 0)
(-9.5299208e-10 -1.25539e-05 0)
(4.562862e-09 -1.7191981e-06 0)
(1.3048646e-10 8.1114209e-06 0)
(9.3222209e-10 6.1606793e-06 0)
(5.9297247e-10 6.1615741e-06 0)
(-3.1398371e-09 8.1130985e-06 0)
(-3.2752822e-10 -1.7182428e-06 0)
(-3.2653481e-09 -1.2554349e-05 0)
(3.4489876e-09 -1.2554788e-05 0)
(3.9427766e-10 -1.719308e-06 0)
(3.2470736e-09 8.1120256e-06 0)
(-6.2182998e-10 6.161118e-06 0)
(-8.8391807e-10 6.1619885e-06 0)
(-1.8713493e-11 8.113641e-06 0)
(-4.2116982e-09 -1.7183655e-06 0)
(1.1753431e-09 -1.2555221e-05 0)
(-1.0323923e-09 -1.2555649e-05 0)
(4.3786835e-09 -1.719401e-06 0)
(1.2588384e-11 8.1125959e-06 0)
(9.1849291e-10 6.1615454e-06 0)
(6.0190012e-10 6.1623836e-06 0)
(-3.0166893e-09 8.1141732e-06 0)
(-1.611079e-10 -1.7184933e-06 0)
(-3.1764783e-09 -1.2556057e-05 0)
(3.3581169e-09 -1.2556472e-05 0)
(2.267277e-10 -1.7195022e-06 0)
(3.1228369e-09 8.113158e-06 0)
(-6.3064913e-10 6.1619526e-06 0)
(-8.7122803e-10 6.1627672e-06 0)
(9.2612082e-11 8.1146754e-06 0)
(-4.039055e-09 -1.7186079e-06 0)
(1.2489427e-09 -1.2556864e-05 0)
(-1.108628e-09 -1.255727e-05 0)
(4.203657e-09 -1.7195871e-06 0)
(-9.9387498e-11 8.1136873e-06 0)
(9.0551071e-10 6.162349e-06 0)
(6.1036402e-10 6.1631328e-06 0)
(-2.9004242e-09 8.1151674e-06 0)
(-4.069699e-12 -1.7187268e-06 0)
(-3.0933031e-09 -1.2557639e-05 0)
(3.2712574e-09 -1.2558031e-05 0)
(6.7357561e-11 -1.7196802e-06 0)
(3.0049978e-09 8.114209e-06 0)
(-6.3903202e-10 6.1627262e-06 0)
(-8.5926219e-10 6.1634873e-06 0)
(1.9782948e-10 8.1156315e-06 0)
(-3.8762529e-09 -1.7188336e-06 0)
(1.3178968e-09 -1.2558387e-05 0)
(-1.1817493e-09 -1.255877e-05 0)
(4.0374062e-09 -1.7197576e-06 0)
(-2.0571449e-10 8.1146993e-06 0)
(8.9324116e-10 6.1630933e-06 0)
(6.18395e-10 6.1638248e-06 0)
(-2.7906368e-09 8.1160857e-06 0)
(1.4418023e-10 -1.7189438e-06 0)
(-3.0154106e-09 -1.2559103e-05 0)
(3.1883115e-09 -1.2559473e-05 0)
(-8.420233e-11 -1.7198432e-06 0)
(2.8932487e-09 8.1151824e-06 0)
(-6.470043e-10 6.1634421e-06 0)
(-8.4797884e-10 6.1641519e-06 0)
(2.973279e-10 8.1165139e-06 0)
(-3.722662e-09 -1.7190431e-06 0)
(1.3825833e-09 -1.2559793e-05 0)
(-1.2518359e-09 -1.2560155e-05 0)
(3.8795143e-09 -1.7199137e-06 0)
(-3.0669073e-10 8.1156357e-06 0)
(8.8164761e-10 6.1637812e-06 0)
(6.2602486e-10 6.164463e-06 0)
(-2.6869118e-09 8.1169323e-06 0)
(2.8424767e-10 -1.719145e-06 0)
(-2.9423941e-09 -1.2560455e-05 0)
(3.1091538e-09 -1.2560803e-05 0)
(-2.2835733e-10 -1.7199922e-06 0)
(2.7872603e-09 8.1160823e-06 0)
(-6.5459337e-10 6.1641031e-06 0)
(-8.3733555e-10 6.164764e-06 0)
(3.9150428e-10 8.1173266e-06 0)
(-3.5776455e-09 -1.7192371e-06 0)
(1.4433725e-09 -1.2561091e-05 0)
(-1.3189942e-09 -1.2561431e-05 0)
(3.7295327e-09 -1.7200562e-06 0)
(-4.0263281e-10 8.1165004e-06 0)
(8.7069192e-10 6.1644158e-06 0)
(6.3328592e-10 6.1650501e-06 0)
(-2.5888291e-09 8.1177112e-06 0)
(4.1674155e-10 -1.719331e-06 0)
(-2.8738565e-09 -1.25617e-05 0)
(3.033635e-09 -1.2562027e-05 0)
(-3.6554025e-10 -1.7201281e-06 0)
(2.6866874e-09 8.1169121e-06 0)
(-6.6182776e-10 6.164712e-06 0)
(-8.2728992e-10 6.1653265e-06 0)
(4.8075777e-10 8.1180735e-06 0)
(-3.4405676e-09 -1.7194161e-06 0)
(1.500624e-09 -1.2562284e-05 0)
(-1.3833524e-09 -1.2562605e-05 0)
(3.58699e-09 -1.7201862e-06 0)
(-4.9387014e-10 8.1172967e-06 0)
(8.6033501e-10 6.1649996e-06 0)
(6.4021061e-10 6.1655889e-06 0)
(-2.4959693e-09 8.1184261e-06 0)
(5.4226664e-10 -1.7195024e-06 0)
(-2.809414e-09 -1.2562844e-05 0)
(2.9615855e-09 -1.2563151e-05 0)
(-4.9620352e-10 -1.720252e-06 0)
(2.5911752e-09 8.1176753e-06 0)
(-6.6873682e-10 6.1652715e-06 0)
(-8.1779973e-10 6.1658419e-06 0)
(5.654852e-10 8.118758e-06 0)
(-3.3108007e-09 -1.7195808e-06 0)
(1.5546835e-09 -1.2563379e-05 0)
(-1.4450579e-09 -1.2563681e-05 0)
(3.451399e-09 -1.7203045e-06 0)
(-5.8074026e-10 8.1180281e-06 0)
(8.5053747e-10 6.1655351e-06 0)
(6.468312e-10 6.1660819e-06 0)
(-2.4079182e-09 8.1190803e-06 0)
(6.6141786e-10 -1.7196597e-06 0)
(-2.7486983e-09 -1.2563892e-05 0)
(2.8928203e-09 -1.256418e-05 0)
(-6.2081225e-10 -1.7203645e-06 0)
(2.5003634e-09 8.118375e-06 0)
(-6.7535032e-10 6.1657839e-06 0)