/*--------------------------------*- C++ -*----------------------------------*\
| =========                 |                                                 |
| \\      /  F ield         | OpenFOAM: The Open Source CFD Toolbox           |
|  \\    /   O peration     | Version:  5.x                                   |
|   \\  /    A nd           | Web:      www.OpenFOAM.org                      |
|    \\/     M anipulation  |                                                 |
\*---------------------------------------------------------------------------*/
FoamFile
{
    version     2.0;
    format      ascii;
    class       volVectorField;
    location    "4";
    object      U_0;
}
// * * * * * * * * * * * * * * * * * * * * * * * * * * * * * * * * * * * * * //

dimensions      [0 1 -1 0 0 0 0];

internalField   nonuniform List<vector> 
1920
(
(-0.00037671238 -0.0034628364 0)
(-0.00068710233 -0.0039251502 0)
(-0.0003737001 -0.0038939741 0)
(-0.0001173385 -0.0038905069 0)
(0.00011733881 -0.0038905069 0)
(0.00037370022 -0.0038939741 0)
(0.00068710221 -0.0039251502 0)
(0.00037671229 -0.0034628362 0)
(-0.00052010239 -0.0032076346 0)
(-0.0011328126 -0.0040335548 0)
(-0.0007231756 -0.0040869506 0)
(-0.00024537332 -0.0040893801 0)
(0.0002453739 -0.00408938 0)
(0.00072317587 -0.0040869506 0)
(0.0011328125 -0.0040335546 0)
(0.00052010236 -0.0032076342 0)
(-0.00043557979 -0.0027956837 0)
(-0.0011200262 -0.0040309368 0)
(-0.00080801771 -0.0042920105 0)
(-0.00029029087 -0.0043526328 0)
(0.0002902916 -0.0043526327 0)
(0.00080801808 -0.0042920104 0)
(0.0011200263 -0.0040309366 0)
(0.00043557982 -0.0027956834 0)
(-0.00032287079 -0.0023989007 0)
(-0.0009489925 -0.0039611634 0)
(-0.00075239735 -0.0044737329 0)
(-0.00028270923 -0.0046283773 0)
(0.00028271003 -0.0046283773 0)
(0.0007523978 -0.004473733 0)
(0.00094899265 -0.0039611633 0)
(0.00032287087 -0.0023989006 0)
(-0.0002296931 -0.0020937268 0)
(-0.00074542256 -0.0038717537 0)
(-0.00063717829 -0.0046139716 0)
(-0.0002479758 -0.0048749095 0)
(0.00024797656 -0.0048749095 0)
(0.00063717878 -0.0046139716 0)
(0.00074542281 -0.0038717536 0)
(0.0002296932 -0.0020937267 0)
(-0.00015895148 -0.001874067 0)
(-0.00055827921 -0.0037862729 0)
(-0.00050767508 -0.0047150894 0)
(-0.0002034937 -0.0050774001 0)
(0.00020349436 -0.0050774001 0)
(0.00050767556 -0.0047150895 0)
(0.00055827952 -0.0037862728 0)
(0.00015895159 -0.001874067 0)
(-0.00010735727 -0.0017186361 0)
(-0.00040398124 -0.0037131399 0)
(-0.00038734387 -0.0047853796 0)
(-0.00015905788 -0.0052354321 0)
(0.0001590584 -0.0052354321 0)
(0.00038734431 -0.0047853796 0)
(0.00040398159 -0.0037131398 0)
(0.0001073574 -0.0017186361 0)
(-7.0998748e-05 -0.00161041 0)
(-0.00028477532 -0.003654502 0)
(-0.00028574404 -0.0048329795 0)
(-0.00011993274 -0.0053543028 0)
(0.00011993311 -0.0053543028 0)
(0.00028574444 -0.0048329794 0)
(0.0002847757 -0.0036545018 0)
(7.0998887e-05 -0.0016104099 0)
(-4.6166932e-05 -0.0015365285 0)
(-0.00019639466 -0.0036096589 0)
(-0.00020525377 -0.0048645044 0)
(-8.7709001e-05 -0.0054410849 0)
(8.7709219e-05 -0.0054410848 0)
(0.0002052541 -0.0048645043 0)
(0.00019639504 -0.0036096586 0)
(4.6167086e-05 -0.0015365284 0)
(-2.9523603e-05 -0.0014870271 0)
(-0.00013295709 -0.003576603 0)
(-0.00014403695 -0.0048849653 0)
(-6.2640099e-05 -0.0055028681 0)
(6.2640189e-05 -0.0055028681 0)
(0.0001440372 -0.004884965 0)
(0.00013295746 -0.0035766027 0)
(2.952375e-05 -0.001487027 0)
(-1.8596084e-05 -0.0014544117 0)
(-8.8423767e-05 -0.0035529337 0)
(-9.9100717e-05 -0.0048980005 0)
(-4.371446e-05 -0.005545904 0)
(4.3714434e-05 -0.0055459039 0)
(9.9100897e-05 -0.0048980002 0)
(8.8424097e-05 -0.0035529333 0)
(1.8596233e-05 -0.0014544116 0)
(-1.150139e-05 -0.0014332579 0)
(-5.7858034e-05 -0.0035363951 0)
(-6.6879119e-05 -0.0049061487 0)
(-2.9956792e-05 -0.0055753 0)
(2.9956672e-05 -0.0055752999 0)
(6.6879228e-05 -0.0049061483 0)
(5.7858323e-05 -0.0035363947 0)
(1.1501527e-05 -0.0014332578 0)
(-6.988412e-06 -0.0014197599 0)
(-3.7201358e-05 -0.0035250849 0)
(-4.4360101e-05 -0.0049111428 0)
(-2.0116255e-05 -0.0055950125 0)
(2.0116065e-05 -0.0055950123 0)
(4.4360137e-05 -0.0049111424 0)
(3.7201596e-05 -0.0035250845 0)
(6.9885356e-06 -0.0014197597 0)
(-4.1459907e-06 -0.0014112942 0)
(-2.3512317e-05 -0.0035175054 0)
(-2.8878472e-05 -0.0049141339 0)
(-1.3288981e-05 -0.0056079964 0)
(1.3288731e-05 -0.0056079963 0)
(2.8878456e-05 -0.0049141335 0)
(2.35125e-05 -0.0035175051 0)
(4.1461024e-06 -0.0014112941 0)
(-2.3975683e-06 -0.0014060877 0)
(-1.4561596e-05 -0.0035125243 0)
(-1.8465684e-05 -0.0049158784 0)
(-8.6015443e-06 -0.0056163929 0)
(8.6012588e-06 -0.0056163927 0)
(1.8465605e-05 -0.0049158781 0)
(1.4561733e-05 -0.003512524 0)
(2.3976581e-06 -0.0014060876 0)
(-1.3351123e-06 -0.0014029564 0)
(-8.8232541e-06 -0.0035093167 0)
(-1.1560974e-05 -0.0049168601 0)
(-5.4697094e-06 -0.005621719 0)
(5.4693891e-06 -0.0056217189 0)
(1.1560864e-05 -0.0049168597 0)
(8.8233352e-06 -0.0035093164 0)
(1.3351945e-06 -0.0014029563 0)
(-7.0848693e-07 -0.0014011249 0)
(-5.1983694e-06 -0.003507294 0)
(-7.0781078e-06 -0.0049173874 0)
(-3.3975474e-06 -0.0056250254 0)
(3.3972146e-06 -0.0056250253 0)
(7.0779489e-06 -0.0049173872 0)
(5.1984178e-06 -0.0035072938 0)
(7.0854548e-07 -0.0014011249 0)
(-3.467472e-07 -0.0014000909 0)
(-2.9592892e-06 -0.0035060499 0)
(-4.2128819e-06 -0.0049176496 0)
(-2.0614535e-06 -0.0056270279 0)
(2.0611107e-06 -0.0056270279 0)
(4.21271e-06 -0.0049176495 0)
(2.959295e-06 -0.0035060497 0)
(3.4680276e-07 -0.0014000908 0)
(-1.467925e-07 -0.0013995359 0)
(-1.6043512e-06 -0.0035053051 0)
(-2.4231087e-06 -0.0049177645 0)
(-1.2114911e-06 -0.0056282042 0)
(1.2111523e-06 -0.0056282041 0)
(2.4229122e-06 -0.0049177644 0)
(1.6043393e-06 -0.003505305 0)
(1.4682916e-07 -0.0013995358 0)
(-4.1524357e-08 -0.0013992597 0)
(-8.0854735e-07 -0.0035048756 0)
(-1.328785e-06 -0.0049177997 0)
(-6.8510804e-07 -0.0056288687 0)
(6.8477592e-07 -0.0056288687 0)
(1.3285925e-06 -0.0049177998 0)
(8.085134e-07 -0.0035048757 0)
(4.1560436e-08 -0.0013992598 0)
(9.1758994e-09 -0.0013991408 0)
(-3.5711948e-07 -0.0035046389 0)
(-6.7931255e-07 -0.0049177967 0)
(-3.6604596e-07 -0.0056292235 0)
(3.6573533e-07 -0.0056292236 0)
(6.7911981e-07 -0.0049177968 0)
(3.5707961e-07 -0.003504639 0)
(-9.1505111e-09 -0.0013991409 0)
(2.9906823e-08 -0.0013991054 0)
(-1.1402957e-07 -0.003504518 0)
(-3.0683812e-07 -0.0049177767 0)
(-1.7945476e-07 -0.0056293973 0)
(1.7917184e-07 -0.0056293974 0)
(3.0666451e-07 -0.0049177769 0)
(1.1399018e-07 -0.0035045182 0)
(-2.988211e-08 -0.0013991055 0)
(3.4918548e-08 -0.0013991111 0)
(7.351643e-09 -0.0035044629 0)
(-1.0412125e-07 -0.0049177524 0)
(-7.3919495e-08 -0.005629469 0)
(7.3671413e-08 -0.0056294691 0)
(1.0397182e-07 -0.0049177527 0)
(-7.3889656e-09 -0.0035044632 0)
(-3.4895909e-08 -0.0013991113 0)
(3.2674902e-08 -0.001399134 0)
(5.9345845e-08 -0.0035044444 0)
(-9.784479e-10 -0.0049177288 0)
(-1.8639932e-08 -0.0056294867 0)
(1.8443866e-08 -0.0056294868 0)
(8.5784909e-10 -0.0049177293 0)
(-5.9363517e-08 -0.0035044448 0)
(-3.2654625e-08 -0.0013991342 0)
(2.7275509e-08 -0.0013991615 0)
(7.5042318e-08 -0.0035044441 0)
(4.3938456e-08 -0.004917709 0)
(8.9486155e-09 -0.0056294781 0)
(-9.0945041e-09 -0.0056294783 0)
(-4.4013373e-08 -0.0049177094 0)
(-7.5052929e-08 -0.0035044446 0)
(-2.7250427e-08 -0.0013991617 0)
(2.1619235e-08 -0.0013991874 0)
(7.1744763e-08 -0.0035044521 0)
(5.8952278e-08 -0.004917693 0)
(1.8955726e-08 -0.0056294592 0)
(-1.9038053e-08 -0.0056294594 0)
(-5.8990478e-08 -0.0049176935 0)
(-7.1723036e-08 -0.0035044526 0)
(-2.1598512e-08 -0.0013991877 0)
(1.6070885e-08 -0.0013992094 0)
(6.1716608e-08 -0.0035044624 0)
(5.7044412e-08 -0.0049176809 0)
(2.2067094e-08 -0.005629438 0)
(-2.2091383e-08 -0.0056294383 0)
(-5.7026861e-08 -0.0049176814 0)
(-6.168649e-08 -0.003504463 0)
(-1.6041427e-08 -0.0013992096 0)
(1.1874307e-08 -0.0013992267 0)
(4.8611195e-08 -0.0035044727 0)
(4.9873848e-08 -0.0049176719 0)
(1.9343141e-08 -0.0056294187 0)
(-1.929819e-08 -0.0056294188 0)
(-4.9817953e-08 -0.0049176725 0)
(-4.8543879e-08 -0.0035044733 0)
(-1.1850753e-08 -0.0013992269 0)
(8.166193e-09 -0.0013992397 0)
(3.7301789e-08 -0.0035044814 0)
(3.912662e-08 -0.0049176656 0)
(1.693706e-08 -0.0056294024 0)
(-1.6834747e-08 -0.0056294027 0)
(-3.9014413e-08 -0.0049176661 0)
(-3.72273e-08 -0.003504482 0)
(-8.1327458e-09 -0.00139924 0)
(5.8312396e-09 -0.0013992491 0)
(2.6650564e-08 -0.0035044883 0)
(3.0397038e-08 -0.004917661 0)
(1.2302963e-08 -0.0056293899 0)
(-1.2136281e-08 -0.0056293901 0)
(-3.0250657e-08 -0.0049176617 0)
(-2.6540872e-08 -0.003504489 0)
(-5.8043513e-09 -0.0013992494 0)
(3.6940736e-09 -0.0013992557 0)
(1.9257109e-08 -0.0035044935 0)
(2.1354229e-08 -0.0049176579 0)
(1.0008484e-08 -0.0056293804 0)
(-9.793351e-09 -0.0056293807 0)
(-2.115959e-08 -0.0049176585 0)
(-1.9143283e-08 -0.0035044941 0)
(-3.658216e-09 -0.0013992559 0)
(2.6356249e-09 -0.0013992601 0)
(1.2601976e-08 -0.0035044972 0)
(1.5653348e-08 -0.0049176558 0)
(6.2664139e-09 -0.0056293736 0)
(-6.0002537e-09 -0.0056293739 0)
(-1.5433212e-08 -0.0049176564 0)
(-1.245972e-08 -0.0035044978 0)
(-2.6061491e-09 -0.0013992604 0)
(1.4653405e-09 -0.001399263 0)
(8.7651507e-09 -0.0035044997 0)
(9.8055749e-09 -0.0049176544 0)
(5.1398287e-09 -0.0056293689 0)
(-4.8402217e-09 -0.0056293692 0)
(-9.5509038e-09 -0.004917655 0)
(-8.6228208e-09 -0.0035045003 0)
(-1.4289884e-09 -0.0013992633 0)
(1.1170681e-09 -0.0013992648 0)
(5.0172992e-09 -0.0035045012 0)
(6.9742041e-09 -0.0049176535 0)
(2.5373751e-09 -0.0056293658 0)
(-2.2049767e-09 -0.005629366 0)
(-6.7052893e-09 -0.004917654 0)
(-4.8556855e-09 -0.0035045018 0)
(-1.0863111e-09 -0.0013992651 0)
(4.581568e-10 -0.0013992658 0)
(3.4186615e-09 -0.0035045022 0)
(3.5090766e-09 -0.0049176528 0)
(2.3694488e-09 -0.0056293638 0)
(-2.0210072e-09 -0.005629364 0)
(-3.22161e-09 -0.0049176533 0)
(-3.2611464e-09 -0.0035045027 0)
(-4.2300093e-10 -0.0013992661 0)
(4.5767871e-10 -0.0013992664 0)
(1.3537216e-09 -0.0035045026 0)
(2.5096179e-09 -0.0049176524 0)
(5.6379343e-10 -0.0056293626 0)
(-2.0162246e-10 -0.0056293628 0)
(-2.2192829e-09 -0.0049176529 0)
(-1.1862615e-09 -0.0035045031 0)
(-4.2698793e-10 -0.0013992666 0)
(4.377488e-11 -0.0013992665 0)
(9.4816501e-10 -0.0035045027 0)
(4.431487e-10 -0.0049176521 0)
(9.7061549e-10 -0.005629362 0)
(-6.0888309e-10 -0.0056293622 0)
(-1.4932664e-10 -0.0049176525 0)
(-7.8828476e-10 -0.0035045031 0)
(-1.1001879e-11 -0.0013992667 0)
(1.9613416e-10 -0.0013992665 0)
(-2.5732778e-10 -0.0035045025 0)
(4.2711316e-10 -0.0049176519 0)
(-3.7791598e-10 -0.0056293617 0)
(7.3671569e-10 -0.0056293619 0)
(-1.399705e-10 -0.0049176523 0)
(4.1915431e-10 -0.0035045029 0)
(-1.6657077e-10 -0.0013992667 0)
(-1.0862925e-10 -0.0013992663 0)
(-9.5862535e-11 -0.0035045023 0)
(-9.1577449e-10 -0.0049176517 0)
(3.2029559e-10 -0.0056293617 0)
(2.4990035e-11 -0.0056293618 0)
(1.1943633e-09 -0.0049176521 0)
(2.4785029e-10 -0.0035045026 0)
(1.3840175e-10 -0.0013992665 0)
(1.0279282e-10 -0.0013992661 0)
(-8.9894792e-10 -0.0035045019 0)
(-4.6366599e-10 -0.0049176516 0)
(-7.9109913e-10 -0.0056293618 0)
(1.1212498e-09 -0.005629362 0)
(7.2904213e-10 -0.0049176519 0)
(1.0470154e-09 -0.0035045022 0)
(-7.4991665e-11 -0.0013992662 0)
(-1.5545173e-10 -0.0013992658 0)
(-4.9554054e-10 -0.0035045015 0)
(-1.4616291e-09 -0.0049176515 0)
(3.4438239e-11 -0.0056293621 0)
(2.7377159e-10 -0.0056293622 0)
(1.7103908e-09 -0.0049176517 0)
(6.3293758e-10 -0.0035045017 0)
(1.8210818e-10 -0.0013992659 0)
(7.3876155e-11 -0.0013992655 0)
(-1.1214924e-09 -0.003504501 0)
(-8.1135472e-10 -0.0049176514 0)
(-9.5874812e-10 -0.0056293624 0)
(1.2446792e-09 -0.0056293625 0)
(1.0437235e-09 -0.0049176516 0)
(1.2513698e-09 -0.0035045012 0)
(-4.8048884e-11 -0.0013992656 0)
(-1.6411466e-10 -0.0013992651 0)
(-6.2866878e-10 -0.0035045005 0)
(-1.652326e-09 -0.0049176512 0)
(-8.8856884e-11 -0.0056293627 0)
(3.4909777e-10 -0.0056293628 0)
(1.8639358e-09 -0.0049176514 0)
(7.483676e-10 -0.0035045007 0)
(1.8790528e-10 -0.0013992652 0)
(6.6603942e-11 -0.0013992648 0)
(-1.1783888e-09 -0.0035045 0)
(-9.3146552e-10 -0.0049176511 0)
(-1.0207445e-09 -0.005629363 0)
(1.2561552e-09 -0.0056293631 0)
(1.1264952e-09 -0.0049176513 0)
(1.2889182e-09 -0.0035045001 0)
(-4.2630966e-11 -0.0013992649 0)
(-1.610236e-10 -0.0013992645 0)
(-6.6161913e-10 -0.0035044995 0)
(-1.7000158e-09 -0.004917651 0)
(-1.4440969e-10 -0.0056293634 0)
(3.5426723e-10 -0.0056293634 0)
(1.8733371e-09 -0.0049176512 0)
(7.6347743e-10 -0.0035044996 0)
(1.824114e-10 -0.0013992645 0)
(6.5114191e-11 -0.0013992641 0)
(-1.1762213e-09 -0.0035044989 0)
(-9.6369886e-10 -0.0049176509 0)
(-1.0394594e-09 -0.0056293637 0)
(1.2254276e-09 -0.0056293638 0)
(1.1224816e-09 -0.004917651 0)
(1.2686689e-09 -0.0035044991 0)
(-4.2670801e-11 -0.0013992642 0)
(-1.5534181e-10 -0.0013992638 0)
(-6.6109874e-10 -0.0035044984 0)
(-1.6944102e-09 -0.0049176508 0)
(-1.7249629e-10 -0.0056293641 0)
(3.3574094e-10 -0.0056293641 0)
(1.8327174e-09 -0.0049176509 0)
(7.4700626e-10 -0.0035044985 0)
(1.7486651e-10 -0.0013992638 0)
(6.4357739e-11 -0.0013992635 0)
(-1.1555562e-09 -0.0035044979 0)
(-9.6437422e-10 -0.0049176507 0)
(-1.040114e-09 -0.0056293644 0)
(1.1825951e-09 -0.0056293645 0)
(1.0915232e-09 -0.0049176508 0)
(1.2326421e-09 -0.003504498 0)
(-4.3035283e-11 -0.0013992635 0)
(-1.4968684e-10 -0.0013992631 0)
(-6.5097213e-10 -0.0035044974 0)
(-1.6699293e-09 -0.0049176505 0)
(-1.8856561e-10 -0.0056293648 0)
(3.1261771e-10 -0.0056293648 0)
(1.7790104e-09 -0.0049176507 0)
(7.2389849e-10 -0.0035044975 0)
(1.6786334e-10 -0.0013992631 0)
(6.3155571e-11 -0.0013992628 0)
(-1.1299344e-09 -0.0035044969 0)
(-9.5386387e-10 -0.0049176505 0)
(-1.031978e-09 -0.0056293651 0)
(1.1393838e-09 -0.0056293652 0)
(1.0557032e-09 -0.0049176505 0)
(1.1949659e-09 -0.003504497 0)
(-4.255541e-11 -0.0013992628 0)
(-1.4451517e-10 -0.0013992625 0)
(-6.3844436e-10 -0.0035044964 0)
(-1.6383325e-09 -0.0049176503 0)
(-1.9798799e-10 -0.0056293654 0)
(2.9170328e-10 -0.0056293655 0)
(1.7248676e-09 -0.0049176504 0)
(7.0165471e-10 -0.0035044965 0)
(1.6177106e-10 -0.0013992625 0)
(6.1483432e-11 -0.0013992621 0)
(-1.1030113e-09 -0.0035044959 0)
(-9.3857857e-10 -0.0049176502 0)
(-1.0182764e-09 -0.0056293658 0)
(1.0995495e-09 -0.0056293658 0)
(1.0217247e-09 -0.0049176503 0)
(1.1592397e-09 -0.003504496 0)
(-4.1275508e-11 -0.0013992622 0)
(-1.3973222e-10 -0.0013992618 0)
(-6.2505936e-10 -0.0035044955 0)
(-1.6031167e-09 -0.0049176501 0)
(-2.0259454e-10 -0.0056293661 0)
(2.7465142e-10 -0.0056293661 0)
(1.6735204e-09 -0.0049176502 0)
(6.8157776e-10 -0.0035044955 0)
(1.5638096e-10 -0.0013992619 0)
(5.9538281e-11 -0.0013992615 0)
(-1.0753913e-09 -0.003504495 0)
(-9.2021518e-10 -0.00491765 0)
(-1.0003078e-09 -0.0056293664 0)
(1.0636447e-09 -0.0056293665 0)
(9.9065235e-10 -0.0049176501 0)
(1.1256209e-09 -0.0035044951 0)
(-3.948672e-11 -0.0013992615 0)
(-1.3519427e-10 -0.0013992612 0)
(-6.1084709e-10 -0.0035044945 0)
(-1.5652459e-09 -0.0049176498 0)
(-2.0322653e-10 -0.0056293667 0)
(2.6116183e-10 -0.0056293668 0)
(1.6249966e-09 -0.00491765 0)
(6.6316607e-10 -0.0035044946 0)
(1.5143422e-10 -0.0013992612 0)
(5.7481354e-11 -0.0013992609 0)
(-1.0470286e-09 -0.003504494 0)
(-8.9922016e-10 -0.0049176497 0)
(-9.7891328e-10 -0.005629367 0)
(1.0310966e-09 -0.0056293671 0)
(9.6183477e-10 -0.0049176498 0)
(1.0934466e-09 -0.0035044941 0)
(-3.7445776e-11 -0.0013992609 0)
(-1.3081682e-10 -0.0013992606 0)
(-5.9565754e-10 -0.0035044936 0)
(-1.5251372e-09 -0.0049176496 0)
(-2.0055106e-10 -0.0056293673 0)
(2.5034455e-10 -0.0056293674 0)
(1.57851e-09 -0.0049176497 0)
(6.4564363e-10 -0.0035044937 0)
(1.4674745e-10 -0.0013992606 0)
(5.5405082e-11 -0.0013992603 0)
(-1.0179054e-09 -0.0035044931 0)
(-8.7587659e-10 -0.0049176495 0)
(-9.5486966e-10 -0.0056293676 0)
(1.0010707e-09 -0.0056293677 0)
(9.3433666e-10 -0.0049176496 0)
(1.0620704e-09 -0.0035044932 0)
(-3.5326212e-11 -0.0013992603 0)
(-1.2656901e-10 -0.00139926 0)
(-5.7946614e-10 -0.0035044927 0)
(-1.4831977e-09 -0.0049176494 0)
(-1.952244e-10 -0.0056293679 0)
(2.4126925e-10 -0.005629368 0)
(1.5332747e-09 -0.0049176495 0)
(6.2839471e-10 -0.0035044928 0)
(1.4221461e-10 -0.0013992601 0)
(5.3354057e-11 -0.0013992597 0)
(-9.8813098e-10 -0.0035044922 0)
(-8.5053194e-10 -0.0049176493 0)
(-9.2892203e-10 -0.0056293682 0)
(9.7280305e-10 -0.0056293683 0)
(9.0738467e-10 -0.0049176494 0)
(1.0310533e-09 -0.0035044924 0)
(-3.3233491e-11 -0.0013992598 0)
(-1.2244901e-10 -0.0013992594 0)
(-5.6236932e-10 -0.0035044918 0)
(-1.439886e-09 -0.0049176492 0)
(-1.8786576e-10 -0.0056293685 0)
(2.3316169e-10 -0.0056293686 0)
(1.4887219e-09 -0.0049176493 0)
(6.1102583e-10 -0.0035044919 0)
(1.3778257e-10 -0.0013992595 0)
(5.1348722e-11 -0.0013992592 0)
(-9.5789308e-10 -0.0035044913 0)
(-8.2357907e-10 -0.0049176491 0)
(-9.0173712e-10 -0.0056293688 0)
(9.4570486e-10 -0.0056293689 0)
(8.8045342e-10 -0.0049176492 0)
(1.0001554e-09 -0.0035044915 0)
(-3.1228294e-11 -0.0013992592 0)
(-1.1846542e-10 -0.0013992589 0)
(-5.4452291e-10 -0.0035044909 0)
(-1.3956635e-09 -0.004917649 0)
(-1.7901114e-10 -0.0056293691 0)
(2.2544956e-10 -0.0056293692 0)
(1.4445113e-09 -0.0049176491 0)
(5.933251e-10 -0.0035044911 0)
(1.3342997e-10 -0.0013992589 0)
(4.9399935e-11 -0.0013992586 0)
(-9.2740255e-10 -0.0035044905 0)
(-7.9540244e-10 -0.0049176489 0)
(-8.7386922e-10 -0.0056293694 0)
(9.1937191e-10 -0.0056293694 0)
(8.5323728e-10 -0.004917649 0)
(9.6928153e-10 -0.0035044907 0)
(-2.93438e-11 -0.0013992587 0)
(-1.1462725e-10 -0.0013992583 0)
(-5.2609562e-10 -0.0035044901 0)
(-1.3509506e-09 -0.0049176488 0)
(-1.690924e-10 -0.0056293697 0)
(2.1774723e-10 -0.0056293697 0)
(1.4004837e-09 -0.004917649 0)
(5.7520776e-10 -0.0035044903 0)
(1.2915249e-10 -0.0013992584 0)
(4.7516053e-11 -0.0013992581 0)
(-8.9685927e-10 -0.0035044897 0)
(-7.6634569e-10 -0.0049176487 0)
(-8.4575461e-10 -0.0056293699 0)
(8.935555e-10 -0.00562937 0)
(8.2559622e-10 -0.0049176489 0)
(9.3843109e-10 -0.0035044899 0)
(-2.7597254e-11 -0.0013992582 0)
(-1.1094067e-10 -0.0013992578 0)
(-5.072459e-10 -0.0035044893 0)
(-1.3061086e-09 -0.0049176486 0)
(-1.584415e-10 -0.0056293702 0)
(2.0981834e-10 -0.0056293703 0)
(1.3566073e-09 -0.0049176488 0)
(5.5667113e-10 -0.0035044895 0)
(1.249543e-10 -0.0013992579 0)
(4.5705125e-11 -0.0013992576 0)
(-8.664402e-10 -0.0035044889 0)
(-7.3670225e-10 -0.0049176485 0)
(-8.1772512e-10 -0.0056293704 0)
(8.6812375e-10 -0.0056293705 0)
(7.9750404e-10 -0.0049176487 0)
(9.0765975e-10 -0.0035044891 0)
(-2.5996456e-11 -0.0013992577 0)
(-1.074081e-10 -0.0013992573 0)
(-4.8811516e-10 -0.0035044886 0)
(-1.261439e-09 -0.0049176484 0)
(-1.4730787e-10 -0.0056293707 0)
(2.0153587e-10 -0.0056293708 0)
(1.312932e-09 -0.0049176486 0)
(5.3776205e-10 -0.0035044888 0)
(1.2084307e-10 -0.0013992574 0)
(4.3975107e-11 -0.0013992571 0)
(-8.3629738e-10 -0.0035044882 0)
(-7.067195e-10 -0.0049176483 0)
(-7.9002913e-10 -0.005629371 0)
(8.4302429e-10 -0.005629371 0)
(7.690072e-10 -0.0049176485 0)
(8.7705319e-10 -0.0035044884 0)
(-2.4543672e-11 -0.0013992572 0)
(-1.0402917e-10 -0.0013992568 0)
(-4.6882798e-10 -0.0035044878 0)
(-1.2171922e-09 -0.0049176482 0)
(-1.3587942e-10 -0.0056293712 0)
(1.9284704e-10 -0.0056293713 0)
(1.2695543e-09 -0.0049176485 0)
(5.1855519e-10 -0.003504488 0)
(1.168276e-10 -0.0013992569 0)
(4.2333251e-11 -0.0013992566 0)
(-8.0656022e-10 -0.0035044875 0)
(-6.7660756e-10 -0.0049176482 0)
(-7.6285343e-10 -0.0056293715 0)
(8.1825412e-10 -0.0056293716 0)
(7.4019474e-10 -0.0049176484 0)
(8.4670995e-10 -0.0035044877 0)
(-2.3237648e-11 -0.0013992567 0)
(-1.0080138e-10 -0.0013992564 0)
(-4.4949414e-10 -0.0035044871 0)
(-1.173577e-09 -0.0049176481 0)
(-1.2430105e-10 -0.0056293717 0)
(1.8374629e-10 -0.0056293718 0)
(1.2265928e-09 -0.0049176483 0)
(4.9913841e-10 -0.0035044873 0)
(1.1291625e-10 -0.0013992565 0)
(4.0785825e-11 -0.0013992562 0)
(-7.7733916e-10 -0.0035044868 0)
(-6.4654696e-10 -0.004917648 0)
(-7.3633966e-10 -0.005629372 0)
(7.9383794e-10 -0.005629372 0)
(7.1117686e-10 -0.0049176482 0)
(8.167301e-10 -0.003504487 0)
(-2.2074999e-11 -0.0013992563 0)
(-9.7720981e-11 -0.0013992559 0)
(-4.3021157e-10 -0.0035044865 0)
(-1.1307683e-09 -0.0049176479 0)
(-1.1268763e-10 -0.0056293722 0)
(1.7425631e-10 -0.0056293723 0)
(1.184172e-09 -0.0049176482 0)
(4.7960335e-10 -0.0035044867 0)
(1.091164e-10 -0.001399256 0)
(3.9337589e-11 -0.0013992557 0)
(-7.4872807e-10 -0.0035044861 0)
(-6.1669461e-10 -0.0049176479 0)
(-7.1059635e-10 -0.0056293724 0)
(7.6981319e-10 -0.0056293725 0)
(6.820715e-10 -0.0049176481 0)
(7.8720884e-10 -0.0035044864 0)
(-2.1050931e-11 -0.0013992558 0)
(-9.478327e-11 -0.0013992555 0)
(-4.1106736e-10 -0.0035044858 0)
(-1.0889125e-09 -0.0049176478 0)
(-1.0113286e-10 -0.0056293727 0)
(1.6441549e-10 -0.0056293727 0)
(1.1424121e-09 -0.004917648 0)
(4.6003981e-10 -0.003504486 0)
(1.0543392e-10 -0.0013992556 0)
(3.7991937e-11 -0.0013992553 0)
(-7.2080582e-10 -0.0035044855 0)
(-5.8718674e-10 -0.0049176478 0)
(-6.8570627e-10 -0.0056293729 0)
(7.4622171e-10 -0.005629373 0)
(6.5299549e-10 -0.004917648 0)
(7.5823229e-10 -0.0035044857 0)
(-2.0159616e-11 -0.0013992554 0)
(-9.1983199e-11 -0.0013992551 0)
(-3.9213848e-10 -0.0035044852 0)
(-1.0481304e-09 -0.0049176477 0)
(-8.971374e-11 -0.0056293731 0)
(1.5427047e-10 -0.0056293732 0)
(1.1014233e-09 -0.0049176479 0)
(4.405322e-10 -0.0035044854 0)
(1.0187338e-10 -0.0013992552 0)
(3.6750631e-11 -0.0013992549 0)
(-6.9363708e-10 -0.0035044849 0)
(-5.5814018e-10 -0.0049176476 0)
(-6.6173088e-10 -0.0056293733 0)
(7.2310459e-10 -0.0056293734 0)
(6.2405956e-10 -0.0049176478 0)
(7.298759e-10 -0.0035044851 0)
(-1.9394684e-11 -0.001399255 0)
(-8.9315185e-11 -0.0013992547 0)
(-3.7349144e-10 -0.0035044846 0)
(-1.0085188e-09 -0.0049176476 0)
(-7.8493218e-11 -0.0056293735 0)
(1.4387184e-10 -0.0056293736 0)
(1.0613026e-09 -0.0049176478 0)
(4.2115759e-10 -0.0035044849 0)
(9.8437976e-11 -0.0013992548 0)
(3.5614271e-11 -0.0013992546 0)
(-6.672726e-10 -0.0035044844 0)
(-5.2965314e-10 -0.0049176475 0)
(-6.3871263e-10 -0.0056293737 0)
(7.0049994e-10 -0.0056293738 0)
(5.9536557e-10 -0.0049176477 0)
(7.0220332e-10 -0.0035044846 0)
(-1.8749131e-11 -0.0013992547 0)
(-8.677356e-11 -0.0013992544 0)
(-3.5518238e-10 -0.0035044841 0)
(-9.7015128e-10 -0.0049176475 0)
(-6.7521167e-11 -0.005629374 0)
(1.3327151e-10 -0.005629374 0)
(1.0221327e-09 -0.0049176477 0)
(4.0198494e-10 -0.0035044843 0)
(9.5129694e-11 -0.0013992545 0)
(3.4582275e-11 -0.0013992542 0)
(-6.4174992e-10 -0.0035044838 0)
(-5.0180523e-10 -0.0049176474 0)
(-6.1667689e-10 -0.0056293742 0)
(6.7844192e-10 -0.0056293742 0)
(5.6700506e-10 -0.0049176476 0)
(6.7526666e-10 -0.003504484 0)
(-1.8215677e-11 -0.0013992543 0)
(-8.4352431e-11 -0.001399254 0)
(-3.3725697e-10 -0.0035044836 0)
(-9.3308004e-10 -0.0049176474 0)
(-5.6834972e-11 -0.0056293744 0)
(1.2252147e-10 -0.0056293744 0)
(9.8398217e-10 -0.0049176476 0)
(3.8307444e-10 -0.0035044838 0)
(9.1949309e-11 -0.0013992541 0)
(3.3653032e-11 -0.0013992539 0)
(-6.1709391e-10 -0.0035044833 0)
(-4.7465801e-10 -0.0049176473 0)
(-5.9563338e-10 -0.0056293745 0)
(6.5696044e-10 -0.0056293746 0)
(5.3905868e-10 -0.0049176475 0)
(6.4910668e-10 -0.0035044835 0)
(-1.7787014e-11 -0.0013992539 0)
(-8.2045944e-11 -0.0013992537 0)
(-3.1975071e-10 -0.0035044831 0)
(-8.9733665e-10 -0.0049176473 0)
(-4.6460582e-11 -0.0056293747 0)
(1.1167278e-10 -0.0056293748 0)
(9.4690502e-10 -0.0049176475 0)
(3.6447764e-10 -0.0035044833 0)
(8.8896584e-11 -0.0013992538 0)
(3.2824151e-11 -0.0013992535 0)
(-5.933176e-10 -0.0035044828 0)
(-4.4825615e-10 -0.0049176472 0)
(-5.7557763e-10 -0.0056293749 0)
(6.3608089e-10 -0.005629375 0)
(5.1159606e-10 -0.0049176474 0)
(6.2375331e-10 -0.003504483 0)
(-1.7455644e-11 -0.0013992536 0)
(-7.9848038e-11 -0.0013992534 0)
(-3.0268941e-10 -0.0035044826 0)
(-8.6293423e-10 -0.0049176472 0)
(-3.6413302e-11 -0.0056293751 0)
(1.0077467e-10 -0.0056293752 0)
(9.1094204e-10 -0.0049176474 0)
(3.4623755e-10 -0.0035044828 0)
(8.5970373e-11 -0.0013992535 0)
(3.2092659e-11 -0.0013992532 0)
(-5.7042356e-10 -0.0035044824 0)
(-4.2262866e-10 -0.0049176471 0)
(-5.5649315e-10 -0.0056293753 0)
(6.1582427e-10 -0.0056293754 0)
(4.8467583e-10 -0.0049176473 0)
(5.9922666e-10 -0.0035044826 0)
(-1.7214248e-11 -0.0013992533 0)
(-7.7752871e-11 -0.0013992531 0)
(-2.860903e-10 -0.0035044821 0)
(-8.2986944e-10 -0.0049176471 0)
(-2.6699212e-11 -0.0056293755 0)
(8.9873914e-11 -0.0056293756 0)
(8.7612135e-10 -0.0049176473 0)
(3.2838915e-10 -0.0035044823 0)
(8.3168731e-11 -0.0013992532 0)
(3.1455032e-11 -0.0013992529 0)
(-5.4840524e-10 -0.0035044819 0)
(-3.9779079e-10 -0.0049176471 0)
(-5.3835328e-10 -0.0056293757 0)
(5.9620708e-10 -0.0056293757 0)
(4.5834618e-10 -0.0049176473 0)
(5.7553781e-10 -0.0035044821 0)
(-1.7055544e-11 -0.001399253 0)
(-7.5754625e-11 -0.0013992528 0)
(-2.6996277e-10 -0.0035044817 0)
(-7.9812513e-10 -0.004917647 0)
(-1.7316719e-11 -0.0056293758 0)
(7.9014051e-11 -0.0056293759 0)
(8.4245971e-10 -0.0049176472 0)
(3.109597e-10 -0.0035044819 0)
(8.0489142e-11 -0.0013992529 0)
(3.0907306e-11 -0.0013992526 0)
(-5.2724819e-10 -0.0035044815 0)
(-3.7374586e-10 -0.004917647 0)
(-5.2112337e-10 -0.005629376 0)
(5.7724125e-10 -0.0056293761 0)
(4.3264524e-10 -0.0049176472 0)
(5.5268968e-10 -0.0035044817 0)
(-1.6972644e-11 -0.0013992527 0)
(-7.3847717e-11 -0.0013992525 0)
(-2.5430967e-10 -0.0035044813 0)
(-7.6767255e-10 -0.004917647 0)
(-8.2579172e-12 -0.0056293762 0)
(6.8235026e-11 -0.0056293762 0)
(8.099631e-10 -0.0049176471 0)
(2.9396961e-10 -0.0035044815 0)
(7.7928428e-11 -0.0013992526 0)
(3.0445092e-11 -0.0013992524 0)
(-5.0693175e-10 -0.0035044811 0)
(-3.5048738e-10 -0.0049176469 0)
(-5.0476277e-10 -0.0056293763 0)
(5.5893402e-10 -0.0056293764 0)
(4.0760176e-10 -0.0049176471 0)
(5.3067817e-10 -0.0035044813 0)
(-1.6958848e-11 -0.0013992524 0)
(-7.2026759e-11 -0.0013992522 0)
(-2.3912844e-10 -0.0035044809 0)
(-7.3847394e-10 -0.0049176469 0)
(4.895593e-13 -0.0056293765 0)
(5.7572564e-11 -0.0056293766 0)
(7.7862816e-10 -0.0049176471 0)
(2.7743285e-10 -0.0035044811 0)
(7.5482984e-11 -0.0013992523 0)
(3.0063904e-11 -0.0013992521 0)
(-4.8743027e-10 -0.0035044807 0)
(-3.2800112e-10 -0.0049176469 0)
(-4.892268e-10 -0.0056293766 0)
(5.4128831e-10 -0.0056293767 0)
(3.8323574e-10 -0.004917647 0)
(5.094929e-10 -0.0035044809 0)
(-1.7007788e-11 -0.0013992522 0)
(-7.0286598e-11 -0.001399252 0)
(-2.2441209e-10 -0.0035044805 0)
(-7.1048458e-10 -0.0049176468 0)
(8.9412397e-12 -0.0056293768 0)
(4.7058072e-11 -0.0056293769 0)
(7.4844329e-10 -0.004917647 0)
(2.6135778e-10 -0.0035044807 0)
(7.3148866e-11 -0.0013992521 0)
(2.9758959e-11 -0.0013992519 0)
(-4.6871458e-10 -0.0035044804 0)
(-3.0626692e-10 -0.0049176468 0)
(-4.7446851e-10 -0.0056293769 0)
(5.2430258e-10 -0.005629377 0)
(3.5955977e-10 -0.004917647 0)
(4.8911849e-10 -0.0035044805 0)
(-1.7113539e-11 -0.0013992519 0)
(-6.8622376e-11 -0.0013992518 0)
(-2.1015044e-10 -0.0035044802 0)
(-6.836553e-10 -0.0049176468 0)
(1.7114525e-11 -0.0056293771 0)
(3.671862e-11 -0.0056293771 0)
(7.1938986e-10 -0.004917647 0)
(2.4574797e-10 -0.0035044804 0)
(7.0921738e-11 -0.0013992518 0)
(2.9525523e-11 -0.0013992516 0)
(-4.5075288e-10 -0.00350448 0)
(-2.8526039e-10 -0.0049176468 0)
(-4.6043991e-10 -0.0056293772 0)
(5.0797132e-10 -0.0056293773 0)
(3.3657933e-10 -0.0049176469 0)
(4.6953522e-10 -0.0035044802 0)
(-1.7270415e-11 -0.0013992517 0)
(-6.7029365e-11 -0.0013992515 0)
(-1.9633088e-10 -0.0035044799 0)
(-6.5793376e-10 -0.0049176467 0)
(2.5027702e-11 -0.0056293774 0)
(2.6576724e-11 -0.0056293774 0)
(6.9144327e-10 -0.0049176469 0)
(2.3060279e-10 -0.00350448 0)
(6.879713e-11 -0.0013992516 0)
(2.9358692e-11 -0.0013992514 0)
(-4.3351205e-10 -0.0035044797 0)
(-2.6495443e-10 -0.0049176467 0)
(-4.4709342e-10 -0.0056293775 0)
(4.9228528e-10 -0.0056293776 0)
(3.1429409e-10 -0.0049176469 0)
(4.5071999e-10 -0.0035044799 0)
(-1.747323e-11 -0.0013992515 0)
(-6.5503309e-11 -0.0013992513 0)
(-1.8293927e-10 -0.0035044796 0)
(-6.3326627e-10 -0.0049176467 0)
(3.2698716e-11 -0.0056293776 0)
(1.6650808e-11 -0.0056293777 0)
(6.645741e-10 -0.0049176468 0)
(2.1591813e-10 -0.0035044797 0)
(6.6770462e-11 -0.0013992514 0)
(2.9253647e-11 -0.0013992512 0)
(-4.1695826e-10 -0.0035044794 0)
(-2.4532057e-10 -0.0049176467 0)
(-4.3438267e-10 -0.0056293778 0)
(4.7723188e-10 -0.0056293778 0)
(2.9269893e-10 -0.0049176468 0)
(4.3264729e-10 -0.0035044795 0)
(-1.7717107e-11 -0.0013992513 0)
(-6.4040088e-11 -0.0013992511 0)
(-1.6996054e-10 -0.0035044793 0)
(-6.0959901e-10 -0.0049176467 0)
(4.0144932e-11 -0.0056293779 0)
(6.9552595e-12 -0.0056293779 0)
(6.3874933e-10 -0.0049176468 0)
(2.0168741e-10 -0.0035044794 0)
(6.4837018e-11 -0.0013992512 0)
(2.9205573e-11 -0.001399251 0)
(-4.0105771e-10 -0.0035044791 0)
(-2.2632979e-10 -0.0049176466 0)
(-4.2226325e-10 -0.005629378 0)
(4.6279561e-10 -0.0056293781 0)
(2.717846e-10 -0.0049176468 0)
(4.1528987e-10 -0.0035044792 0)
(-1.7997478e-11 -0.0013992511 0)
(-6.2635875e-11 -0.0013992509 0)
(-1.5737944e-10 -0.003504479 0)
(-5.8687906e-10 -0.0049176466 0)
(4.7382333e-11 -0.0056293781 0)
(-2.4990141e-12 -0.0056293782 0)
(6.1393314e-10 -0.0049176468 0)
(1.8790181e-10 -0.0035044791 0)
(6.2992076e-11 -0.001399251 0)
(2.9209755e-11 -0.0013992508 0)
(-3.857774e-10 -0.0035044788 0)
(-2.079536e-10 -0.0049176466 0)
(-4.1069318e-10 -0.0056293783 0)
(4.4895863e-10 -0.0056293783 0)
(2.5153883e-10 -0.0049176467 0)
(3.9861929e-10 -0.003504479 0)
(-1.8310046e-11 -0.0013992509 0)
(-6.1287052e-11 -0.0013992507 0)
(-1.4518069e-10 -0.0035044787 0)
(-5.6505519e-10 -0.0049176466 0)
(5.442529e-11 -0.0056293784 0)
(-1.1704226e-11 -0.0056293784 0)
(5.9008799e-10 -0.0049176467 0)
(1.74551e-10 -0.0035044788 0)
(6.1231034e-11 -0.0013992508 0)
(2.9261544e-11 -0.0013992507 0)
(-3.7108515e-10 -0.0035044786 0)
(-1.9016446e-10 -0.0049176466 0)
(-3.9963321e-10 -0.0056293785 0)
(4.3570138e-10 -0.0056293785 0)
(2.3194691e-10 -0.0049176467 0)
(3.8260664e-10 -0.0035044787 0)
(-1.8650952e-11 -0.0013992507 0)
(-5.9990269e-11 -0.0013992506 0)
(-1.3334973e-10 -0.0035044785 0)
(-5.4407829e-10 -0.0049176466 0)
(6.1286508e-11 -0.0056293786 0)
(-2.0655195e-11 -0.0056293786 0)
(5.6717529e-10 -0.0049176467 0)
(1.616236e-10 -0.0035044786 0)