/*--------------------------------*- C++ -*----------------------------------*\
| =========                 |                                                 |
| \\      /  F ield         | OpenFOAM: The Open Source CFD Toolbox           |
|  \\    /   O peration     | Version:  5.x                                   |
|   \\  /    A nd           | Web:      www.OpenFOAM.org                      |
|    \\/     M anipulation  |                                                 |
\*---------------------------------------------------------------------------*/
FoamFile
{
    version     2.0;
    format      ascii;
    class       volScalarField;
    location    "10";
    object      p;
}
// * * * * * * * * * * * * * * * * * * * * * * * * * * * * * * * * * * * * * //

dimensions      [0 2 -2 0 0 0 0];

internalField   nonuniform List<scalar> 
1920
(
-6806.8572
-6806.8647
-6806.8475
-6806.8316
-6806.8317
-6806.8475
-6806.8647
-6806.8572
-6806.852
-6806.8587
-6806.8492
-6806.8386
-6806.8386
-6806.8492
-6806.8587
-6806.852
-6806.8478
-6806.8541
-6806.8517
-6806.8461
-6806.8461
-6806.8517
-6806.8541
-6806.8478
-6806.8447
-6806.8527
-6806.8548
-6806.8526
-6806.8525
-6806.8548
-6806.8527
-6806.8447
-6806.8444
-6806.8536
-6806.8587
-6806.8584
-6806.8584
-6806.8587
-6806.8536
-6806.8444
-6806.8467
-6806.8569
-6806.8634
-6806.8645
-6806.8645
-6806.8634
-6806.8569
-6806.8467
-6806.8515
-6806.8619
-6806.8693
-6806.8712
-6806.8712
-6806.8693
-6806.8619
-6806.8515
-6806.8584
-6806.8687
-6806.8762
-6806.8785
-6806.8785
-6806.8762
-6806.8687
-6806.8584
-6806.8672
-6806.8768
-6806.8841
-6806.8866
-6806.8866
-6806.8841
-6806.8768
-6806.8672
-6806.8775
-6806.8863
-6806.893
-6806.8955
-6806.8955
-6806.893
-6806.8863
-6806.8775
-6806.8891
-6806.8967
-6806.9027
-6806.905
-6806.905
-6806.9027
-6806.8967
-6806.8891
-6806.9014
-6806.9079
-6806.913
-6806.9151
-6806.9151
-6806.913
-6806.908
-6806.9015
-6806.9144
-6806.9198
-6806.924
-6806.9258
-6806.9258
-6806.924
-6806.9198
-6806.9145
-6806.9278
-6806.932
-6806.9355
-6806.937
-6806.937
-6806.9355
-6806.9321
-6806.9278
-6806.9413
-6806.9446
-6806.9473
-6806.9486
-6806.9486
-6806.9473
-6806.9446
-6806.9413
-6806.9549
-6806.9574
-6806.9595
-6806.9604
-6806.9604
-6806.9595
-6806.9574
-6806.9549
-6806.9684
-6806.9702
-6806.9718
-6806.9726
-6806.9726
-6806.9718
-6806.9703
-6806.9684
-6806.9819
-6806.9831
-6806.9843
-6806.9849
-6806.9849
-6806.9843
-6806.9832
-6806.9819
-6806.9952
-6806.9961
-6806.9969
-6806.9973
-6806.9973
-6806.9969
-6806.9961
-6806.9952
-6807.0084
-6807.009
-6807.0095
-6807.0098
-6807.0099
-6807.0095
-6807.009
-6807.0084
-6807.0215
-6807.0219
-6807.0222
-6807.0225
-6807.0225
-6807.0222
-6807.0219
-6807.0215
-6807.0345
-6807.0347
-6807.035
-6807.0351
-6807.0351
-6807.035
-6807.0347
-6807.0345
-6807.0474
-6807.0475
-6807.0477
-6807.0478
-6807.0478
-6807.0477
-6807.0476
-6807.0474
-6807.0603
-6807.0603
-6807.0604
-6807.0605
-6807.0605
-6807.0604
-6807.0603
-6807.0603
-6807.0731
-6807.0731
-6807.0732
-6807.0732
-6807.0732
-6807.0732
-6807.0731
-6807.0731
-6807.0859
-6807.0859
-6807.0859
-6807.086
-6807.086
-6807.0859
-6807.0859
-6807.0859
-6807.0986
-6807.0986
-6807.0987
-6807.0987
-6807.0987
-6807.0987
-6807.0986
-6807.0986
-6807.1114
-6807.1114
-6807.1114
-6807.1114
-6807.1114
-6807.1114
-6807.1114
-6807.1114
-6807.1241
-6807.1241
-6807.1242
-6807.1242
-6807.1242
-6807.1242
-6807.1241
-6807.1241
-6807.1368
-6807.1369
-6807.1369
-6807.1369
-6807.1369
-6807.1369
-6807.1369
-6807.1368
-6807.1496
-6807.1496
-6807.1496
-6807.1497
-6807.1497
-6807.1496
-6807.1496
-6807.1496
-6807.1623
-6807.1623
-6807.1624
-6807.1624
-6807.1624
-6807.1624
-6807.1623
-6807.1623
-6807.1751
-6807.1751
-6807.1751
-6807.1751
-6807.1751
-6807.1751
-6807.1751
-6807.175
-6807.1878
-6807.1878
-6807.1879
-6807.1879
-6807.1879
-6807.1879
-6807.1878
-6807.1878
-6807.2005
-6807.2006
-6807.2006
-6807.2006
-6807.2006
-6807.2006
-6807.2006
-6807.2005
-6807.2133
-6807.2133
-6807.2134
-6807.2134
-6807.2134
-6807.2134
-6807.2133
-6807.2133
-6807.2261
-6807.2261
-6807.2261
-6807.2262
-6807.2261
-6807.2261
-6807.2261
-6807.226
-6807.2388
-6807.2389
-6807.2389
-6807.2389
-6807.2389
-6807.2389
-6807.2388
-6807.2388
-6807.2516
-6807.2516
-6807.2517
-6807.2517
-6807.2517
-6807.2516
-6807.2516
-6807.2516
-6807.2643
-6807.2644
-6807.2644
-6807.2644
-6807.2644
-6807.2644
-6807.2644
-6807.2643
-6807.2771
-6807.2772
-6807.2772
-6807.2772
-6807.2772
-6807.2772
-6807.2771
-6807.2771
-6807.2899
-6807.2899
-6807.29
-6807.29
-6807.29
-6807.29
-6807.2899
-6807.2899
-6807.3026
-6807.3027
-6807.3027
-6807.3027
-6807.3027
-6807.3027
-6807.3027
-6807.3026
-6807.3154
-6807.3155
-6807.3155
-6807.3155
-6807.3155
-6807.3155
-6807.3155
-6807.3154
-6807.3282
-6807.3283
-6807.3283
-6807.3283
-6807.3283
-6807.3283
-6807.3282
-6807.3282
-6807.341
-6807.341
-6807.3411
-6807.3411
-6807.3411
-6807.3411
-6807.341
-6807.341
-6807.3538
-6807.3538
-6807.3538
-6807.3539
-6807.3539
-6807.3538
-6807.3538
-6807.3538
-6807.3666
-6807.3666
-6807.3666
-6807.3666
-6807.3666
-6807.3666
-6807.3666
-6807.3665
-6807.3793
-6807.3794
-6807.3794
-6807.3794
-6807.3794
-6807.3794
-6807.3794
-6807.3793
-6807.3921
-6807.3922
-6807.3922
-6807.3922
-6807.3922
-6807.3922
-6807.3922
-6807.3921
-6807.4049
-6807.405
-6807.405
-6807.405
-6807.405
-6807.405
-6807.405
-6807.4049
-6807.4177
-6807.4178
-6807.4178
-6807.4178
-6807.4178
-6807.4178
-6807.4177
-6807.4177
-6807.4305
-6807.4306
-6807.4306
-6807.4306
-6807.4306
-6807.4306
-6807.4306
-6807.4305
-6807.4433
-6807.4433
-6807.4434
-6807.4434
-6807.4434
-6807.4434
-6807.4433
-6807.4433
-6807.4561
-6807.4562
-6807.4562
-6807.4562
-6807.4562
-6807.4562
-6807.4561
-6807.4561
-6807.4689
-6807.4689
-6807.469
-6807.469
-6807.469
-6807.469
-6807.4689
-6807.4689
-6807.4817
-6807.4818
-6807.4818
-6807.4818
-6807.4818
-6807.4818
-6807.4818
-6807.4817
-6807.4945
-6807.4946
-6807.4946
-6807.4946
-6807.4946
-6807.4946
-6807.4946
-6807.4945
-6807.5073
-6807.5074
-6807.5074
-6807.5074
-6807.5074
-6807.5074
-6807.5074
-6807.5073
-6807.5201
-6807.5202
-6807.5202
-6807.5202
-6807.5202
-6807.5202
-6807.5202
-6807.5201
-6807.533
-6807.533
-6807.533
-6807.533
-6807.533
-6807.533
-6807.533
-6807.533
-6807.5458
-6807.5458
-6807.5458
-6807.5458
-6807.5458
-6807.5458
-6807.5458
-6807.5458
-6807.5586
-6807.5586
-6807.5586
-6807.5587
-6807.5587
-6807.5586
-6807.5586
-6807.5586
-6807.5714
-6807.5714
-6807.5715
-6807.5715
-6807.5715
-6807.5715
-6807.5714
-6807.5714
-6807.5842
-6807.5843
-6807.5843
-6807.5843
-6807.5843
-6807.5843
-6807.5843
-6807.5842
-6807.597
-6807.5971
-6807.5971
-6807.5971
-6807.5971
-6807.5971
-6807.5971
-6807.597
-6807.6099
-6807.6099
-6807.6099
-6807.6099
-6807.6099
-6807.6099
-6807.6099
-6807.6099
-6807.6227
-6807.6227
-6807.6227
-6807.6227
-6807.6227
-6807.6227
-6807.6227
-6807.6227
-6807.6355
-6807.6355
-6807.6356
-6807.6356
-6807.6356
-6807.6356
-6807.6355
-6807.6355
-6807.6483
-6807.6484
-6807.6484
-6807.6484
-6807.6484
-6807.6484
-6807.6484
-6807.6483
-6807.6612
-6807.6612
-6807.6612
-6807.6612
-6807.6612
-6807.6612
-6807.6612
-6807.6612
-6807.674
-6807.674
-6807.674
-6807.674
-6807.674
-6807.674
-6807.674
-6807.674
-6807.6868
-6807.6868
-6807.6869
-6807.6869
-6807.6869
-6807.6869
-6807.6868
-6807.6868
-6807.6996
-6807.6997
-6807.6997
-6807.6997
-6807.6997
-6807.6997
-6807.6997
-6807.6996
-6807.7125
-6807.7125
-6807.7125
-6807.7125
-6807.7125
-6807.7125
-6807.7125
-6807.7125
-6807.7253
-6807.7253
-6807.7254
-6807.7254
-6807.7254
-6807.7253
-6807.7253
-6807.7253
-6807.7381
-6807.7382
-6807.7382
-6807.7382
-6807.7382
-6807.7382
-6807.7382
-6807.7381
-6807.751
-6807.751
-6807.751
-6807.751
-6807.751
-6807.751
-6807.751
-6807.751
-6807.7638
-6807.7638
-6807.7638
-6807.7639
-6807.7639
-6807.7638
-6807.7638
-6807.7638
-6807.7766
-6807.7767
-6807.7767
-6807.7767
-6807.7767
-6807.7767
-6807.7767
-6807.7766
-6807.7895
-6807.7895
-6807.7895
-6807.7895
-6807.7895
-6807.7895
-6807.7895
-6807.7895
-6807.8023
-6807.8023
-6807.8024
-6807.8024
-6807.8024
-6807.8024
-6807.8023
-6807.8023
-6807.8152
-6807.8152
-6807.8152
-6807.8152
-6807.8152
-6807.8152
-6807.8152
-6807.8152
-6807.828
-6807.828
-6807.828
-6807.828
-6807.828
-6807.828
-6807.828
-6807.828
-6807.8408
-6807.8409
-6807.8409
-6807.8409
-6807.8409
-6807.8409
-6807.8409
-6807.8408
-6807.8537
-6807.8537
-6807.8537
-6807.8537
-6807.8537
-6807.8537
-6807.8537
-6807.8537
-6807.8665
-6807.8665
-6807.8665
-6807.8666
-6807.8666
-6807.8665
-6807.8665
-6807.8665
-6807.8794
-6807.8794
-6807.8794
-6807.8794
-6807.8794
-6807.8794
-6807.8794
-6807.8794
-6807.8922
-6807.8922
-6807.8922
-6807.8922
-6807.8922
-6807.8922
-6807.8922
-6807.8922
-6807.9051
-6807.9051
-6807.9051
-6807.9051
-6807.9051
-6807.9051
-6807.9051
-6807.905
-6807.9179
-6807.9179
-6807.9179
-6807.9179
-6807.9179
-6807.9179
-6807.9179
-6807.9179
-6807.9307
-6807.9307
-6807.9308
-6807.9308
-6807.9308
-6807.9308
-6807.9307
-6807.9307
-6807.9436
-6807.9436
-6807.9436
-6807.9436
-6807.9436
-6807.9436
-6807.9436
-6807.9436
-6807.9564
-6807.9564
-6807.9564
-6807.9564
-6807.9564
-6807.9564
-6807.9564
-6807.9564
-6807.9693
-6807.9693
-6807.9693
-6807.9693
-6807.9693
-6807.9693
-6807.9693
-6807.9693
-6807.9821
-6807.9821
-6807.9821
-6807.9821
-6807.9821
-6807.9821
-6807.9821
-6807.9821
-6807.995
-6807.995
-6807.995
-6807.995
-6807.995
-6807.995
-6807.995
-6807.995
-6808.0078
-6808.0078
-6808.0078
-6808.0078
-6808.0078
-6808.0078
-6808.0078
-6808.0078
-6808.0207
-6808.0207
-6808.0207
-6808.0207
-6808.0207
-6808.0207
-6808.0207
-6808.0207
-6808.0335
-6808.0335
-6808.0335
-6808.0335
-6808.0335
-6808.0335
-6808.0335
-6808.0335
-6808.0463
-6808.0464
-6808.0464
-6808.0464
-6808.0464
-6808.0464
-6808.0464
-6808.0463
-6808.0592
-6808.0592
-6808.0592
-6808.0592
-6808.0592
-6808.0592
-6808.0592
-6808.0592
-6808.072
-6808.0721
-6808.0721
-6808.0721
-6808.0721
-6808.0721
-6808.0721
-6808.072
-6808.0849
-6808.0849
-6808.0849
-6808.0849
-6808.0849
-6808.0849
-6808.0849
-6808.0849
-6808.0977
-6808.0978
-6808.0978
-6808.0978
-6808.0978
-6808.0978
-6808.0978
-6808.0977
-6808.1106
-6808.1106
-6808.1106
-6808.1106
-6808.1106
-6808.1106
-6808.1106
-6808.1106
-6808.1234
-6808.1235
-6808.1235
-6808.1235
-6808.1235
-6808.1235
-6808.1234
-6808.1234
-6808.1363
-6808.1363
-6808.1363
-6808.1363
-6808.1363
-6808.1363
-6808.1363
-6808.1363
-6808.1491
-6808.1491
-6808.1491
-6808.1492
-6808.1492
-6808.1491
-6808.1491
-6808.1491
-6808.162
-6808.162
-6808.162
-6808.162
-6808.162
-6808.162
-6808.162
-6808.162
-6808.1748
-6808.1748
-6808.1748
-6808.1749
-6808.1749
-6808.1748
-6808.1748
-6808.1748
-6808.1877
-6808.1877
-6808.1877
-6808.1877
-6808.1877
-6808.1877
-6808.1877
-6808.1877
-6808.2005
-6808.2005
-6808.2005
-6808.2005
-6808.2005
-6808.2005
-6808.2005
-6808.2005
-6808.2134
-6808.2134
-6808.2134
-6808.2134
-6808.2134
-6808.2134
-6808.2134
-6808.2134
-6808.2262
-6808.2262
-6808.2262
-6808.2262
-6808.2262
-6808.2262
-6808.2262
-6808.2262
-6808.2391
-6808.2391
-6808.2391
-6808.2391
-6808.2391
-6808.2391
-6808.2391
-6808.2391
-6808.2519
-6808.2519
-6808.2519
-6808.2519
-6808.2519
-6808.2519
-6808.2519
-6808.2519
-6808.2648
-6808.2648
-6808.2648
-6808.2648
-6808.2648
-6808.2648
-6808.2648
-6808.2648
-6808.2776
-6808.2776
-6808.2776
-6808.2776
-6808.2776
-6808.2776
-6808.2776
-6808.2776
-6808.2905
-6808.2905
-6808.2905
-6808.2905
-6808.2905
-6808.2905
-6808.2905
-6808.2905
-6808.3033
-6808.3033
-6808.3033
-6808.3033
-6808.3033
-6808.3033
-6808.3033
-6808.3033
-6808.3162
-6808.3162
-6808.3162
-6808.3162
-6808.3162
-6808.3162
-6808.3162
-6808.3162
-6808.329
-6808.329
-6808.329
-6808.329
-6808.329
-6808.329
-6808.329
-6808.329
-6808.3419
-6808.3419
-6808.3419
-6808.3419
-6808.3419
-6808.3419
-6808.3419
-6808.3419
-6808.3547
-6808.3547
-6808.3547
-6808.3547
-6808.3547
-6808.3547
-6808.3547
-6808.3547
-6808.3676
-6808.3676
-6808.3676
-6808.3676
-6808.3676
-6808.3676
-6808.3676
-6808.3676
-6808.3804
-6808.3804
-6808.3804
-6808.3804
-6808.3804
-6808.3804
-6808.3804
-6808.3804
-6808.3933
-6808.3933
-6808.3933
-6808.3933
-6808.3933
-6808.3933
-6808.3933
-6808.3933
-6808.4061
-6808.4061
-6808.4061
-6808.4061
-6808.4061
-6808.4061
-6808.4061
-6808.4061
-6808.419
-6808.419
-6808.419
-6808.419
-6808.419
-6808.419
-6808.419
-6808.419
-6808.4318
-6808.4318
-6808.4318
-6808.4318
-6808.4318
-6808.4318
-6808.4318
-6808.4318
-6808.4447
-6808.4447
-6808.4447
-6808.4447
-6808.4447
-6808.4447
-6808.4447
-6808.4447
-6808.4575
-6808.4575
-6808.4575
-6808.4575
-6808.4575
-6808.4575
-6808.4575
-6808.4575
-6808.4704
-6808.4704
-6808.4704
-6808.4704
-6808.4704
-6808.4704
-6808.4704
-6808.4704
-6808.4832
-6808.4832
-6808.4832
-6808.4832
-6808.4832
-6808.4832
-6808.4832
-6808.4832
-6808.4961
-6808.4961
-6808.4961
-6808.4961
-6808.4961
-6808.4961
-6808.4961
-6808.4961
-6808.5089
-6808.5089
-6808.5089
-6808.5089
-6808.5089
-6808.5089
-6808.5089
-6808.5089
-6808.5218
-6808.5218
-6808.5218
-6808.5218
-6808.5218
-6808.5218
-6808.5218
-6808.5218
-6808.5346
-6808.5346
-6808.5346
-6808.5346
-6808.5346
-6808.5346
-6808.5346
-6808.5346
-6808.5475
-6808.5475
-6808.5475
-6808.5475
-6808.5475
-6808.5475
-6808.5475
-6808.5475
-6808.5603
-6808.5603
-6808.5603
-6808.5603
-6808.5603
-6808.5603
-6808.5603
-6808.5603
-6808.5732
-6808.5732
-6808.5732
-6808.5732
-6808.5732
-6808.5732
-6808.5732
-6808.5732
-6808.586
-6808.586
-6808.586
-6808.586
-6808.586
-6808.586
-6808.586
-6808.586
-6808.5989
-6808.5989
-6808.5989
-6808.5989
-6808.5989
-6808.5989
-6808.5989
-6808.5989
-6808.6117
-6808.6117
-6808.6117
-6808.6117
-6808.6117
-6808.6117
-6808.6117
-6808.6117
-6808.6246
-6808.6246
-6808.6246
-6808.6246
-6808.6246
-6808.6246
-6808.6246
-6808.6246
-6808.6374
-6808.6374
-6808.6374
-6808.6374
-6808.6374
-6808.6374
-6808.6374
-6808.6374
-6808.6503
-6808.6502
-6808.6502
-6808.6502
-6808.6502
-6808.6502
-6808.6502
-6808.6503
-6808.6631
-6808.6631
-6808.6631
-6808.6631
-6808.6631
-6808.6631
-6808.6631
-6808.6631
-6808.6759
-6808.6759
-6808.6759
-6808.6759
-6808.6759
-6808.6759
-6808.6759
-6808.6759
-6808.6888
-6808.6888
-6808.6888
-6808.6888
-6808.6888
-6808.6888
-6808.6888
-6808.6888
-6808.7016
-6808.7016
-6808.7016
-6808.7016
-6808.7016
-6808.7016
-6808.7016
-6808.7016
-6808.7145
-6808.7145
-6808.7145
-6808.7145
-6808.7145
-6808.7145
-6808.7145
-6808.7145
-6808.7273
-6808.7273
-6808.7273
-6808.7273
-6808.7273
-6808.7273
-6808.7273
-6808.7273
-6808.7402
-6808.7402
-6808.7402
-6808.7402
-6808.7402
-6808.7402
-6808.7402
-6808.7402
-6808.753
-6808.753
-6808.753
-6808.753
-6808.753
-6808.753
-6808.753
-6808.753
-6808.7658
-6808.7658
-6808.7658
-6808.7658
-6808.7658
-6808.7658
-6808.7658
-6808.7658
-6808.7787
-6808.7787
-6808.7787
-6808.7787
-6808.7787
-6808.7787
-6808.7787
-6808.7787
-6808.7915
-6808.7915
-6808.7915
-6808.7915
-6808.7915
-6808.7915
-6808.7915
-6808.7915
-6808.8044
-6808.8044
-6808.8044
-6808.8044
-6808.8044
-6808.8044
-6808.8044
-6808.8044
-6808.8172
-6808.8172
-6808.8172
-6808.8172
-6808.8172
-6808.8172
-6808.8172
-6808.8172
-6808.8301
-6808.8301
-6808.8301
-6808.83
-6808.83
-6808.8301
-6808.8301
-6808.8301
-6808.8429
-6808.8429
-6808.8429
-6808.8429
-6808.8429
-6808.8429
-6808.8429
-6808.8429
-6808.8557
-6808.8557
-6808.8557
-6808.8557
-6808.8557
-6808.8557
-6808.8557
-6808.8557
-6808.8686
-6808.8686
-6808.8686
-6808.8686
-6808.8686
-6808.8686
-6808.8686
-6808.8686
-6808.8814
-6808.8814
-6808.8814
-6808.8814
-6808.8814
-6808.8814
-6808.8814
-6808.8814
-6808.8943
-6808.8943
-6808.8942
-6808.8942
-6808.8942
-6808.8942
-6808.8943
-6808.8943
-6808.9071
-6808.9071
-6808.9071
-6808.9071
-6808.9071
-6808.9071
-6808.9071
-6808.9071
-6808.9199
-6808.9199
-6808.9199
-6808.9199
-6808.9199
-6808.9199
-6808.9199
-6808.9199
-6808.9328
-6808.9328
-6808.9328
-6808.9328
-6808.9328
-6808.9328
-6808.9328
-6808.9328
-6808.9456
-6808.9456
-6808.9456
-6808.9456
-6808.9456
-6808.9456
-6808.9456
-6808.9456
-6808.9584
-6808.9584
-6808.9584
-6808.9584
-6808.9584
-6808.9584
-6808.9584
-6808.9584
-6808.9713
-6808.9713
-6808.9713
-6808.9713
-6808.9713
-6808.9713
-6808.9713
-6808.9713
-6808.9841
-6808.9841
-6808.9841
-6808.9841
-6808.9841
-6808.9841
-6808.9841
-6808.9841
-6808.9969
-6808.9969
-6808.9969
-6808.9969
-6808.9969
-6808.9969
-6808.9969
-6808.9969
-6809.0098
-6809.0098
-6809.0098
-6809.0098
-6809.0098
-6809.0098
-6809.0098
-6809.0098
-6809.0226
-6809.0226
-6809.0226
-6809.0226
-6809.0226
-6809.0226
-6809.0226
-6809.0226
-6809.0354
-6809.0354
-6809.0354
-6809.0354
-6809.0354
-6809.0354
-6809.0354
-6809.0354
-6809.0483
-6809.0483
-6809.0483
-6809.0483
-6809.0483
-6809.0483
-6809.0483
-6809.0483
-6809.0611
-6809.0611
-6809.0611
-6809.0611
-6809.0611
-6809.0611
-6809.0611
-6809.0611
-6809.0739
-6809.0739
-6809.0739
-6809.0739
-6809.0739
-6809.0739
-6809.0739
-6809.0739
-6809.0868
-6809.0868
-6809.0868
-6809.0867
-6809.0867
-6809.0868
-6809.0868
-6809.0868
-6809.0996
-6809.0996
-6809.0996
-6809.0996
-6809.0996
-6809.0996
-6809.0996
-6809.0996
-6809.1124
-6809.1124
-6809.1124
-6809.1124
-6809.1124
-6809.1124
-6809.1124
-6809.1124
-6809.1252
-6809.1252
-6809.1252
-6809.1252
-6809.1252
-6809.1252
-6809.1252
-6809.1252
-6809.1381
-6809.1381
-6809.1381
-6809.1381
-6809.1381
-6809.1381
-6809.1381
-6809.1381
-6809.1509
-6809.1509
-6809.1509
-6809.1509
-6809.1509
-6809.1509
-6809.1509
-6809.1509
-6809.1637
-6809.1637
-6809.1637
-6809.1637
-6809.1637
-6809.1637
-6809.1637
-6809.1637
-6809.1765
-6809.1765
-6809.1765
-6809.1765
-6809.1765
-6809.1765
-6809.1765
-6809.1765
-6809.1894
-6809.1894
-6809.1894
-6809.1894
-6809.1894
-6809.1894
-6809.1894
-6809.1894
-6809.2022
-6809.2022
-6809.2022
-6809.2022
-6809.2022
-6809.2022
-6809.2022
-6809.2022
-6809.215
-6809.215
-6809.215
-6809.215
-6809.215
-6809.215
-6809.215
-6809.215
-6809.2278
-6809.2278
-6809.2278
-6809.2278
-6809.2278
-6809.2278
-6809.2278
-6809.2278
-6809.2407
-6809.2407
-6809.2407
-6809.2407
-6809.2407
-6809.2407
-6809.2407
-6809.2407
-6809.2535
-6809.2535
-6809.2535
-6809.2535
-6809.2535
-6809.2535
-6809.2535
-6809.2535
-6809.2663
-6809.2663
-6809.2663
-6809.2663
-6809.2663
-6809.2663
-6809.2663
-6809.2663
-6809.2791
-6809.2791
-6809.2791
-6809.2791
-6809.2791
-6809.2791
-6809.2791
-6809.2791
-6809.2919
-6809.2919
-6809.2919
-6809.2919
-6809.2919
-6809.2919
-6809.2919
-6809.292
-6809.3048
-6809.3048
-6809.3047
-6809.3047
-6809.3047
-6809.3047
-6809.3048
-6809.3048
-6809.3176
-6809.3176
-6809.3176
-6809.3176
-6809.3176
-6809.3176
-6809.3176
-6809.3176
-6809.3304
-6809.3304
-6809.3304
-6809.3304
-6809.3304
-6809.3304
-6809.3304
-6809.3304
-6809.3432
-6809.3432
-6809.3432
-6809.3432
-6809.3432
-6809.3432
-6809.3432
-6809.3432
-6809.356
-6809.356
-6809.356
-6809.356
-6809.356
-6809.356
-6809.356
-6809.356
-6809.3688
-6809.3688
-6809.3688
-6809.3688
-6809.3688
-6809.3688
-6809.3688
-6809.3688
-6809.3816
-6809.3816
-6809.3816
-6809.3816
-6809.3816
-6809.3816
-6809.3816
-6809.3817
-6809.3945
-6809.3944
-6809.3944
-6809.3944
-6809.3944
-6809.3944
-6809.3945
-6809.3945
-6809.4073
-6809.4073
-6809.4072
-6809.4072
-6809.4072
-6809.4072
-6809.4073
-6809.4073
-6809.4201
-6809.4201
-6809.4201
-6809.42
-6809.42
-6809.4201
-6809.4201
-6809.4201
-6809.4329
-6809.4329
-6809.4329
-6809.4329
-6809.4329
-6809.4329
-6809.4329
-6809.4329
-6809.4457
-6809.4457
-6809.4457
-6809.4457
-6809.4457
-6809.4457
-6809.4457
-6809.4457
-6809.4585
-6809.4585
-6809.4585
-6809.4585
-6809.4585
-6809.4585
-6809.4585
-6809.4585
-6809.4713
-6809.4713
-6809.4713
-6809.4713
-6809.4713
-6809.4713
-6809.4713
-6809.4713
-6809.4841
-6809.4841
-6809.4841
-6809.4841
-6809.4841
-6809.4841
-6809.4841
-6809.4841
-6809.4969
-6809.4969
-6809.4969
-6809.4968
-6809.4969
-6809.4969
-6809.4969
-6809.4969
-6809.5097
-6809.5097
-6809.5096
-6809.5096
-6809.5096
-6809.5097
-6809.5097
-6809.5097
-6809.5225
-6809.5225
-6809.5224
-6809.5224
-6809.5224
-6809.5224
-6809.5225
-6809.5225
-6809.5353
-6809.5353
-6809.5352
-6809.5352
-6809.5352
-6809.5352
-6809.5353
-6809.5353
-6809.5481
-6809.548
-6809.548
-6809.548
-6809.548
-6809.548
-6809.5481
-6809.5481
-6809.5609
-6809.5609
-6809.5608
-6809.5608
-6809.5608
-6809.5608
-6809.5609
-6809.5609
-6809.5737
-6809.5736
-6809.5736
-6809.5736
-6809.5736
-6809.5736
-6809.5736
-6809.5737
-6809.5865
-6809.5864
-6809.5864
-6809.5863
-6809.5863
-6809.5864
-6809.5865
-6809.5865
-6809.5994
-6809.5992
-6809.5991
-6809.5991
-6809.5991
-6809.5991
-6809.5992
-6809.5994
-6809.6122
-6809.6121
-6809.6119
-6809.6118
-6809.6118
-6809.6119
-6809.6121
-6809.6122
-6809.6251
-6809.6249
-6809.6246
-6809.6245
-6809.6245
-6809.6246
-6809.6249
-6809.6251
-6809.638
-6809.6377
-6809.6374
-6809.6372
-6809.6372
-6809.6374
-6809.6377
-6809.638
-6809.651
-6809.6505
-6809.6501
-6809.6499
-6809.6499
-6809.6501
-6809.6505
-6809.651
-6809.664
-6809.6633
-6809.6627
-6809.6625
-6809.6625
-6809.6627
-6809.6633
-6809.664
-6809.677
-6809.6761
-6809.6754
-6809.675
-6809.675
-6809.6753
-6809.6761
-6809.677
-6809.6901
-6809.6889
-6809.6879
-6809.6874
-6809.6874
-6809.6879
-6809.6888
-6809.6901
-6809.7032
-6809.7016
-6809.7003
-6809.6998
-6809.6997
-6809.7003
-6809.7015
-6809.7031
-6809.7162
-6809.7142
-6809.7126
-6809.7119
-6809.7119
-6809.7126
-6809.7141
-6809.7162
-6809.7292
-6809.7266
-6809.7247
-6809.724
-6809.7239
-6809.7247
-6809.7265
-6809.7291
-6809.742
-6809.7388
-6809.7366
-6809.7358
-6809.7357
-6809.7365
-6809.7387
-6809.7418
-6809.7544
-6809.7507
-6809.7482
-6809.7473
-6809.7473
-6809.7481
-6809.7506
-6809.7543
-6809.7664
-6809.7622
-6809.7595
-6809.7586
-6809.7586
-6809.7594
-6809.7621
-6809.7662
-6809.7778
-6809.7732
-6809.7704
-6809.7697
-6809.7697
-6809.7703
-6809.773
-6809.7776
-6809.7882
-6809.7834
-6809.7808
-6809.7806
-6809.7806
-6809.7807
-6809.7832
-6809.788
-6809.7977
-6809.7928
-6809.7908
-6809.7913
-6809.7913
-6809.7907
-6809.7926
-6809.7974
-6809.8064
-6809.8017
-6809.8001
-6809.801
-6809.8009
-6809.8
-6809.8015
-6809.8061
-6809.8136
-6809.8113
-6809.8092
-6809.8083
-6809.8083
-6809.8091
-6809.8112
-6809.8135
)
;

boundaryField
{
    left
    {
        type            zeroGradient;
    }
    right
    {
        type            WKBC;
        index           0;
        value           uniform -6809.8145;
    }
    walls
    {
        type            zeroGradient;
    }
    frontAndBack
    {
        type            empty;
    }
}


// ************************************************************************* //
