/*--------------------------------*- C++ -*----------------------------------*\
| =========                 |                                                 |
| \\      /  F ield         | OpenFOAM: The Open Source CFD Toolbox           |
|  \\    /   O peration     | Version:  5.x                                   |
|   \\  /    A nd           | Web:      www.OpenFOAM.org                      |
|    \\/     M anipulation  |                                                 |
\*---------------------------------------------------------------------------*/
FoamFile
{
    version     2.0;
    format      ascii;
    class       surfaceScalarField;
    location    "10";
    object      phi;
}
// * * * * * * * * * * * * * * * * * * * * * * * * * * * * * * * * * * * * * //

dimensions      [0 3 -1 0 0 0 0];

internalField   nonuniform List<scalar> 
3592
(
-8.1607252e-10
8.1607252e-10
-1.8785218e-09
1.0624548e-09
-1.6435203e-09
-2.3499598e-10
1.0348633e-12
-1.6445502e-09
1.6445558e-09
-1.643516e-09
1.879563e-09
-2.3500212e-10
8.1607679e-10
1.0634915e-09
8.1608213e-10
-1.3179802e-09
2.1340589e-09
-3.7653982e-09
3.5098844e-09
-3.4727886e-09
-5.2759419e-10
1.6959122e-12
-5.1190237e-09
3.4771093e-09
-5.1189184e-09
3.766957e-09
-5.2483834e-10
1.3188496e-09
3.5116103e-09
2.134938e-09
-2.1289419e-09
4.2630079e-09
-5.3047142e-09
6.6856684e-09
-4.7587782e-09
-1.0735191e-09
3.2599222e-12
-9.881051e-09
4.7631748e-09
-9.8788221e-09
5.3082359e-09
-1.0698881e-09
2.1297584e-09
6.6900991e-09
4.2647019e-09
-2.7647436e-09
7.0277581e-09
-6.3639863e-09
1.0284922e-08
-5.605372e-09
-1.8321224e-09
2.9679835e-12
-1.548938e-08
5.6115414e-09
-1.5487385e-08
6.3671306e-09
-1.8254661e-09
2.7660123e-09
1.0291228e-08
7.0307198e-09
-3.0878778e-09
1.0115642e-08
-6.9682141e-09
1.4165269e-08
-6.0473772e-09
-2.7529492e-09
3.359842e-12
-2.1540108e-08
6.0524208e-09
-2.1536436e-08
6.9719055e-09
-2.7449404e-09
3.0890131e-09
1.4174131e-08
1.0119738e-08
-3.2182594e-09
1.3333908e-08
-7.103641e-09
1.8050662e-08
-6.1539112e-09
-3.7026682e-09
2.4461416e-12
-2.7696455e-08
6.1586834e-09
-2.7692663e-08
7.1063743e-09
-3.6926203e-09
3.2192694e-09
1.8061247e-08
1.3339013e-08
-3.1042549e-09
1.6438168e-08
-6.9008877e-09
2.1847305e-08
-5.9472776e-09
-4.6562682e-09
1.8204763e-12
-3.3645543e-08
5.9502647e-09
-3.3641097e-08
6.9029063e-09
-4.6452517e-09
3.1050016e-09
2.1859161e-08
1.644402e-08
-2.897813e-09
1.9335988e-08
-6.3864017e-09
2.5335905e-08
-5.5250502e-09
-5.5176088e-09
7.9875834e-13
-3.9171381e-08
5.5263735e-09
-3.9166661e-08
6.3873761e-09
-5.5062433e-09
2.8980955e-09
2.5348453e-08
1.9342121e-08
-2.5518256e-09
2.1887819e-08
-5.7093899e-09
2.849348e-08
-4.9329574e-09
-6.2940314e-09
-3.2458577e-13
-4.4104005e-08
4.9327466e-09
-4.4099723e-08
5.7090335e-09
-6.2825201e-09
2.551857e-09
2.8505639e-08
2.1893983e-08
-2.1949154e-09
2.4082741e-08
-4.9019779e-09
3.1200553e-08
-4.265528e-09
-6.9304702e-09
-1.0252892e-12
-4.8368497e-08
4.2632412e-09
-4.8363979e-08
4.9009691e-09
-6.9202369e-09
2.19445e-09
3.1212169e-08
2.4088439e-08
-1.7924107e-09
2.5875157e-08
-4.0806441e-09
3.3488797e-08
-3.5573666e-09
-7.4537379e-09
-2.1342447e-12
-5.192372e-08
3.5543128e-09
-5.1920416e-08
4.0783128e-09
-7.4442271e-09
1.7918141e-09
3.3498677e-08
2.5880258e-08
-1.4293826e-09
2.7304546e-08
-3.2684019e-09
3.5327828e-08
-2.8754558e-09
-7.8466729e-09
-2.3830661e-12
-5.4796782e-08
2.8706325e-09
-5.4793421e-08
3.2659418e-09
-7.8395254e-09
1.4284219e-09
3.5336208e-08
2.7308685e-08
-1.0823447e-09
2.8386897e-08
-2.5337267e-09
3.677922e-08
-2.2411794e-09
-8.1392106e-09
-3.2256269e-12
-5.7034727e-08
2.2363096e-09
-5.7032947e-08
2.5302552e-09
-8.1334614e-09
1.0813778e-09
3.6785095e-08
2.8390068e-08
-7.9320751e-10
2.9180111e-08
-1.8851628e-09
3.7871187e-08
-1.6879315e-09
-8.3364307e-09
-3.161337e-12
-5.8719486e-08
1.6818028e-09
-5.87179e-08
1.8818999e-09
-8.3335473e-09
7.9202009e-10
3.7874985e-08
2.9182093e-08
-5.4895802e-10
2.9729074e-08
-1.3474348e-09
3.8669673e-08
-1.2206514e-09
-8.4632047e-09
-3.7416463e-12
-5.9936387e-08
1.2148113e-09
-5.9936444e-08
1.3434695e-09
-8.4621961e-09
5.4782115e-10
3.8670643e-08
2.9729919e-08
-3.5880056e-10
3.0087882e-08
-9.1602082e-10
3.9226905e-08
-8.4560166e-10
-8.5336126e-09
-3.5945616e-12
-6.0778383e-08
8.3888655e-10
-6.0778915e-08
9.1232353e-10
-8.535622e-09
3.57522e-10
3.9225455e-08
3.0087447e-08
-2.1650092e-10
3.0304388e-08
-5.8622862e-10
3.9596643e-08
-5.5571556e-10
-8.5641166e-09
-3.9798642e-12
-6.133011e-08
5.4928018e-10
-6.1332166e-08
5.8202868e-10
-8.5683613e-09
2.1526641e-10
3.9592227e-08
3.0302718e-08
-1.1310119e-10
3.0417496e-08
-3.4654292e-10
3.9830096e-08
-3.4164495e-10
-8.5690033e-09
-3.8714256e-12
-6.1667873e-08
3.3461944e-10
-6.1670646e-08
3.4253581e-10
-8.5762665e-09
1.1175718e-10
3.9823016e-08
3.0414481e-08
-4.6994485e-11
3.0464495e-08
-1.79261e-10
3.9962372e-08
-1.9168694e-10
-8.5565684e-09
-4.1230562e-12
-6.1855428e-08
1.84846e-10
-6.1859606e-08
1.7491946e-10
-8.5663311e-09
4.5680936e-11
3.9952263e-08
3.0460166e-08
-2.7465918e-12
3.0467249e-08
-7.2532414e-11
4.0032169e-08
-9.1581865e-11
-8.5375077e-09
-4.0256074e-12
-6.1942974e-08
8.4434695e-11
-6.1948056e-08
6.8335459e-11
-8.5502206e-09
1.3553583e-12
4.0019254e-08
3.0461527e-08
1.7731863e-11
3.0449522e-08
-7.2240568e-12
4.0057135e-08
-3.0656775e-11
-8.5140663e-09
-4.076872e-12
-6.1969545e-08
2.3750653e-11
-6.1975875e-08
2.9085917e-12
-8.5293699e-09
-1.9069451e-11
4.0041241e-08
3.0442462e-08
2.977027e-11
3.0419758e-08
2.4733468e-11
4.0062183e-08
3.7606489e-12
-8.4930821e-09
-3.8837787e-12
-6.196189e-08
-1.0568845e-11
-6.1969179e-08
-2.8815294e-11
-8.5111122e-09
-3.1122066e-11
4.0043558e-08
3.0411346e-08
2.8713154e-11
3.039105e-08
3.8521753e-11
4.0052383e-08
1.8608075e-11
-8.47316e-09
-3.6943856e-12
-6.1939579e-08
-2.4935603e-11
-6.194793e-08
-4.2440197e-11
-8.4935991e-09
-2.9944173e-11
4.0031071e-08
3.0381406e-08
2.74768e-11
3.036358e-08
3.7394764e-11
4.0042477e-08
2.2775085e-11
-8.458529e-09
-3.3241676e-12
-6.1913469e-08
-2.8553655e-11
-6.192269e-08
-4.0897711e-11
-8.4812439e-09
-2.8638502e-11
4.0018822e-08
3.0352773e-08
1.945918e-11
3.0344126e-08
3.1764025e-11
4.0030181e-08
1.9326299e-11
-8.446083e-09
-2.8798383e-12
-6.1891255e-08
-2.4301309e-11
-6.190126e-08
-3.4822896e-11
-8.470714e-09
-2.0417984e-11
4.0004426e-08
3.0332359e-08
1.523507e-11
3.0328897e-08
2.0982475e-11
4.0024445e-08
1.3691882e-11
-8.438781e-09
-2.3426242e-12
-6.187521e-08
-1.7729474e-11
-6.1885862e-08
-2.3438036e-11
-8.4649942e-09
-1.6050075e-11
3.9997048e-08
3.0316315e-08
7.0445483e-12
3.0321857e-08
1.1953776e-11
4.0019545e-08
6.1491211e-12
-8.4329683e-09
-1.7231551e-12
-6.186733e-08
-9.1455314e-12
-6.1878432e-08
-1.3770443e-11
-8.4603612e-09
-7.5951639e-12
3.9990881e-08
3.0308724e-08
3.9716771e-12
3.0317892e-08
1.6472824e-12
4.0021881e-08
-8.2759362e-14
-8.4312269e-09
-1.0968319e-12
-6.1866305e-08
-1.7680258e-12
-6.187775e-08
-2.7618925e-12
-8.4593561e-09
-4.3414108e-12
3.9992471e-08
3.0304388e-08
-2.2855234e-12
3.0320183e-08
-4.95731e-12
4.0024561e-08
-6.2818193e-12
-8.4298946e-09
-4.1935997e-13
-6.187216e-08
5.5318911e-12
-6.1883694e-08
4.5428287e-12
-8.4583591e-09
2.1993746e-12
3.9994823e-08
3.0306591e-08
-3.3454633e-12
3.0323535e-08
-1.2016705e-11
4.0033244e-08
-1.03077e-11
-8.4315922e-09
1.8563922e-13
-6.1882642e-08
1.0696534e-11
-6.1894194e-08
1.2280076e-11
-8.4599314e-09
3.4311283e-12
4.0003682e-08
3.0310028e-08
-7.6787663e-12
3.0331218e-08
-1.5334942e-11
4.0040908e-08
-1.4106065e-11
-8.4328134e-09
8.0375249e-13
-6.1897545e-08
1.5466769e-11
-6.1908849e-08
1.622965e-11
-8.4606866e-09
8.0241516e-12
4.0011896e-08
3.0318056e-08
-7.1301594e-12
3.0338355e-08
-1.9440345e-11
4.005323e-08
-1.5907995e-11
-8.4363343e-09
1.2909838e-12
-6.1914733e-08
1.8220965e-11
-6.1925769e-08
2.0883146e-11
-8.4633375e-09
7.6007888e-12
4.0025189e-08
3.0325662e-08
-1.0164823e-11
3.0348524e-08
-2.0320754e-11
4.0063394e-08
-1.7844531e-11
-8.4388031e-09
1.7670285e-12
-6.1934337e-08
2.0865087e-11
-6.1944859e-08
2.2236064e-11
-8.464701e-09
1.0841628e-11
4.0036591e-08
3.0336508e-08
-8.6445645e-12
3.0357175e-08
-2.2532033e-11
4.0077293e-08
-1.8187847e-11
-8.4431359e-09
2.0808496e-12
-6.1954595e-08
2.1870958e-11
-6.1964639e-08
2.4805946e-11
-8.4676248e-09
9.3799801e-12
4.0052027e-08
3.0345893e-08
-1.0973294e-11
3.0368153e-08
-2.2017336e-11
4.0088345e-08
-1.9056767e-11
-8.4460893e-09
2.3791605e-12
-6.1976024e-08
2.3126719e-11
-6.1985379e-08
2.4567873e-11
-8.4690586e-09
1.1849878e-11
4.0064753e-08
3.0357747e-08
-8.9742974e-12
3.0377134e-08
-2.3251474e-11
4.0102633e-08
-1.8658977e-11
-8.4506703e-09
2.5082865e-12
-6.199718e-08
2.3078938e-11
-6.2005939e-08
2.5960879e-11
-8.4719293e-09
9.8405151e-12
4.0080884e-08
3.0367593e-08
-1.0985548e-11
3.0388124e-08
-2.2090161e-11
4.0113746e-08
-1.9050426e-11
-8.453703e-09
2.6344278e-12
-6.2018858e-08
2.3550307e-11
-6.2026848e-08
2.4888931e-11
-8.4732608e-09
1.1931989e-11
4.0093848e-08
3.0379529e-08
-8.8002055e-12
3.0396931e-08
-2.2919671e-11
4.0127877e-08
-1.8369101e-11
-8.4582422e-09
2.6013961e-12
-6.2039818e-08
2.2943925e-11
-6.204718e-08
2.5704239e-11
-8.4760099e-09
9.6776252e-12
4.0109885e-08
3.0389212e-08
-1.0699552e-11
3.0407634e-08
-2.1532136e-11
4.0138717e-08
-1.8613832e-11
-8.4611537e-09
2.5877669e-12
-6.2061013e-08
2.302103e-11
-6.2067606e-08
2.4256311e-11
-8.4772383e-09
1.1609774e-11
4.0122539e-08
3.0400825e-08
-8.4709638e-12
3.0416112e-08
-2.2246242e-11
4.0152504e-08
-1.7877303e-11
-8.4655112e-09
2.4335537e-12
-6.2081313e-08
2.2154533e-11
-6.2087316e-08
2.4829196e-11
-8.4799017e-09
9.270072e-12
4.0138108e-08
3.0410101e-08
-1.0347421e-11
3.0426463e-08
-2.0824771e-11
4.0162988e-08
-1.8119427e-11
-8.46821e-09
2.3240491e-12
-6.210175e-08
2.2059874e-11
-6.2107046e-08
2.324666e-11
-8.4810818e-09
1.1148841e-11
4.0150213e-08
3.0421253e-08
-8.1320178e-12
3.0434602e-08
-2.15395e-11
4.0176407e-08
-1.7412264e-11
-8.4723258e-09
2.0943159e-12
-6.2121246e-08
2.1096314e-11
-6.2126037e-08
2.3743313e-11
-8.4837176e-09
8.7976808e-12
4.0165169e-08
3.0430056e-08
-1.0013808e-11
3.0444619e-08
-2.0149958e-11
4.0186551e-08
-1.7691826e-11
-8.4747775e-09
1.9325123e-12
-6.2140864e-08
2.0946947e-11
-6.2145045e-08
2.2139768e-11
-8.484904e-09
1.0667247e-11
4.0176649e-08
3.0440727e-08
-7.8260755e-12
3.0452452e-08
-2.0894313e-11
4.019963e-08
-1.7026467e-11
-8.478634e-09
1.6683169e-12
-6.2159548e-08
1.9969267e-11
-6.2163335e-08
2.2633464e-11
-8.4875569e-09
8.3341105e-12
4.0190958e-08
3.0449066e-08
-9.7151436e-12
3.0462171e-08
-1.9544668e-11
4.0209467e-08
-1.7337264e-11
-8.4808352e-09
1.4905212e-12
-6.217837e-08
1.9822736e-11
-6.2181661e-08
2.1055914e-11
-8.4887839e-09
1.0209056e-11
4.0201812e-08
3.0459279e-08
-7.553041e-12
3.0469731e-08
-2.0312317e-11
4.0222237e-08
-1.6698416e-11
-8.4844377e-09
1.2236775e-12
-6.2196281e-08
1.8870078e-11
-6.2199297e-08
2.1573939e-11
-8.4914765e-09
7.902986e-12
4.0215493e-08
3.0467187e-08
-9.4428246e-12
3.0479177e-08
-1.8990243e-11
4.0231792e-08
-1.7020282e-11
-8.4864017e-09
1.0561713e-12
-6.2214352e-08
1.8752129e-11
-6.2216987e-08
2.0037733e-11
-8.4927561e-09
9.7853499e-12
4.0225752e-08
3.0476976e-08
-7.3000033e-12
3.0486484e-08
-1.9765479e-11
4.0244268e-08
-1.6387538e-11
-8.4897683e-09
8.0814801e-13
-6.2231536e-08
1.7840569e-11
-6.2234009e-08
2.0586489e-11
-8.4954908e-09
7.5070473e-12
4.0238842e-08
3.0484488e-08
-9.1831561e-12
3.049567e-08
-1.8455763e-11
4.0253547e-08
-1.6701188e-11
-8.4915171e-09
6.6728278e-13
-6.2248899e-08
1.7760356e-11
-6.2251096e-08
1.909314e-11
-8.4968177e-09
9.3943528e-12
4.0248547e-08
3.0493886e-08
-7.0538342e-12
3.0502731e-08
-1.922435e-11
4.0265729e-08
-1.605828e-11
-8.4946718e-09
4.5024516e-13
-6.2265397e-08
1.6894012e-11
-6.2267529e-08
1.967039e-11
-8.499583e-09
7.1416583e-12
4.0261086e-08
3.0501033e-08
-8.9248462e-12
3.0511659e-08
-1.7915321e-11
4.0274726e-08
-1.6350411e-11
-8.4962312e-09
3.4406494e-13
-6.2282086e-08
1.6852151e-11
-6.2284032e-08
1.8215995e-11
-8.5009412e-09
9.0303196e-12
4.0270278e-08
3.0510066e-08
-6.8051763e-12
3.0518471e-08
-1.8667744e-11
4.02866e-08
-1.5687557e-11
-8.4992e-09
1.6289154e-13
-6.2297926e-08
1.6029072e-11
-6.2299887e-08
1.8816478e-11
-8.5037175e-09
6.800465e-12
4.0282304e-08
3.0516872e-08
-8.6607712e-12
3.0527135e-08
-1.7352567e-11
4.0295298e-08
-1.5951316e-11
-8.500596e-09
9.3300676e-14
-6.2313965e-08
1.6021968e-11
-6.2315811e-08
1.7395497e-11
-8.5050856e-09
8.6870822e-12
4.0291018e-08
3.0525562e-08
-6.5487893e-12
3.053369e-08
-1.8084033e-11
4.0306844e-08
-1.5264594e-11
-8.5034041e-09
-5.2210334e-14
-6.2329167e-08
1.5237353e-11
-6.2331089e-08
1.8013404e-11
-8.5078505e-09
6.4775139e-12
4.0302564e-08
3.0532045e-08
-8.3875369e-12
3.0542081e-08
-1.6760017e-11
4.0315223e-08
-1.5498285e-11
-8.5046607e-09
-8.7338655e-14
-6.2344573e-08
1.5259611e-11
-6.2346431e-08
1.66203e-11
-8.509206e-09
8.3592914e-12
4.0310831e-08
3.0540407e-08
-6.2826815e-12
3.054837e-08
-1.7469371e-11
4.032642e-08
-1.4788053e-11
-8.5073308e-09
-2.0051025e-13
-6.235915e-08
1.450763e-11
-6.2361129e-08
1.7250333e-11
-8.5119377e-09
6.1679174e-12
4.0321923e-08
3.054658e-08
-8.1044509e-12
3.0556477e-08
-1.6136758e-11
4.0334459e-08
-1.499348e-11
-8.5084692e-09
-2.0558378e-13
-6.2373933e-08
1.4553448e-11
-6.2375883e-08
1.5880259e-11
-8.5132595e-09
8.0427449e-12
4.0329766e-08
3.0554625e-08
-6.0070557e-12
3.0562491e-08
-1.6825268e-11
4.0345288e-08
-1.4262779e-11
-8.5110204e-09
-2.9132858e-13
-6.2387894e-08
1.3828301e-11
-6.2389992e-08
1.6518047e-11
-8.5159382e-09
5.8679646e-12
4.0340427e-08
3.0560499e-08
-7.8125384e-12
3.0570306e-08
-1.5486114e-11
4.0352967e-08
-1.4443785e-11
-8.5120581e-09
-2.717352e-13
-6.2402061e-08
1.3892267e-11
-6.2404151e-08
1.5167096e-11
-8.5172082e-09
7.7343784e-12
4.0347865e-08
3.0568236e-08
-5.7234297e-12
3.0576036e-08
-1.6156462e-11
4.0363411e-08
-1.3697067e-11
-8.5145063e-09
-3.3547333e-13
-6.2415412e-08
1.3188768e-11
-6.2417665e-08
1.5809319e-11
-8.5198179e-09
5.5750359e-12
4.0358109e-08
3.0573816e-08
-7.5137858e-12
3.0583553e-08
-1.481377e-11
4.0370716e-08
-1.3858446e-11
-8.5154572e-09
-2.96707e-13
-6.2428969e-08
1.326627e-11
-6.2431224e-08
1.447456e-11
-8.5210216e-09
7.4321384e-12
4.0365156e-08
3.058125e-08
-5.4340008e-12
3.0588993e-08
-1.5469327e-11
4.0380763e-08
-1.3100669e-11
-8.5178147e-09
-3.4367763e-13
-6.2441716e-08
1.2580124e-11
-6.2444137e-08
1.5118911e-11
-8.5235494e-09
5.2874502e-12
4.0374998e-08
3.0586543e-08
-7.2106183e-12
3.0596206e-08
-1.4126453e-11
4.0387684e-08
-1.3247432e-11
-8.5186895e-09
-2.9081474e-13
-6.2454668e-08
1.2667514e-11
-6.2457091e-08
1.3798314e-11
-8.5246759e-09
7.1348168e-12
4.0381666e-08
3.059368e-08
-5.1412243e-12
3.0601354e-08
-1.477079e-11
4.0397324e-08
-1.2483485e-11
-8.5209657e-09
-3.256921e-13
-6.2466815e-08
1.1995391e-11
-6.2469401e-08
1.4443385e-11
-8.527113e-09
5.0042931e-12
4.0391115e-08
3.059869e-08
-6.9055656e-12
3.0608262e-08
-1.3431064e-11
4.0403854e-08
-1.2620414e-11
-8.5217723e-09
-2.6312574e-13
-6.2479169e-08
1.2089985e-11
-6.2481751e-08
1.313569e-11
-8.5281546e-09
6.8418782e-12
4.0397414e-08
3.0605534e-08
-4.8475521e-12
3.0613116e-08
-1.4067656e-11
4.0413085e-08
-1.1854786e-11
-8.5239741e-09
-2.898501e-13
-6.2490723e-08
1.1429466e-11
-6.2493459e-08
1.3780821e-11
-8.5304951e-09
4.7252461e-12
4.0406479e-08
3.0610265e-08
-6.6010605e-12
3.0619719e-08
-1.2734164e-11
4.0419223e-08
-1.1986197e-11
-8.5247183e-09
-2.2119983e-13
-6.2502484e-08
1.1529451e-11
-6.2505206e-08
1.2485382e-11
-8.5314471e-09
6.5532936e-12
4.0412416e-08
3.061682e-08
-4.555281e-12
3.0624281e-08
-1.3366221e-11
4.0428045e-08
-1.1222814e-11
-8.5268507e-09
-2.4294771e-13
-6.2513454e-08
1.0878905e-11
-6.2516318e-08
1.3130491e-11
-8.533688e-09
4.4504267e-12
4.0421106e-08
3.0621276e-08
-6.2993275e-12
3.0630583e-08
-1.2041685e-11
4.0433792e-08
-1.1352446e-11
-8.5275364e-09
-1.7107733e-13
-6.2524632e-08
1.0983194e-11
-6.2527468e-08
1.1847121e-11
-8.5345482e-09
6.26939e-12
4.0426688e-08
3.0627547e-08
-4.2664725e-12
3.0634855e-08
-1.2672067e-11
4.0442208e-08
-1.0594616e-11
-8.5296029e-09
-1.9031198e-13
-6.2535026e-08
1.034163e-11
-6.253799e-08
1.249255e-11
-8.5366885e-09
4.1802485e-12
4.043501e-08
3.0631732e-08
-6.0023269e-12
3.064086e-08
-1.1358801e-11
4.0447569e-08
-1.0725613e-11
-8.5302327e-09
-1.1740438e-13
-6.2545631e-08
1.0449702e-11
-6.2548554e-08
1.1221374e-11
-8.5374566e-09
5.9907218e-12
4.0440244e-08
3.0637725e-08
-3.982916e-12
3.0644849e-08
-1.1989984e-11
4.0455586e-08
-9.9760372e-12
-8.5322358e-09
-1.359658e-13
-6.255546e-08
9.8166144e-12
-6.2558496e-08
1.1867745e-11
-8.5394971e-09
3.9153027e-12
4.0448206e-08
3.0641645e-08
-5.7117338e-12
3.0650563e-08
-1.0689887e-11
4.0460568e-08
-1.0110973e-11
-8.5328116e-09
-6.3623081e-14
-6.2565505e-08
9.9283691e-12
-6.2568485e-08
1.0609081e-11
-8.5401745e-09
5.7179648e-12
4.0453101e-08
3.0647365e-08
-3.7061194e-12
3.0654275e-08
-1.1323969e-11
4.0468197e-08
-9.3717864e-12
-8.534753e-09
-8.2830624e-14
-6.2574783e-08
9.3035968e-12
-6.2577861e-08
1.125718e-11
-8.5421176e-09
3.6562648e-12
4.0460712e-08
3.0651027e-08
-5.4289382e-12
3.0659706e-08
-1.0038539e-11
4.047281e-08
-9.512712e-12
-8.5352759e-09
-1.2177417e-14
-6.2584281e-08
9.4192205e-12
-6.2587289e-08
1.0011435e-11
-8.5427067e-09
5.4518335e-12
4.0465275e-08
3.065648e-08
-3.4373163e-12
3.0663149e-08
-1.0677249e-11
4.0480061e-08
-8.7855436e-12
-8.5371568e-09
-3.2930094e-14
-6.2593023e-08
8.8028301e-12
-6.2596115e-08
1.0662119e-11
-8.5445556e-09
3.4038211e-12
4.0472543e-08
3.0659889e-08
-5.1550569e-12
3.0668306e-08
-9.4076138e-12
4.0484317e-08
-8.9340471e-12
-8.5376277e-09
3.5289241e-14
-6.260199e-08
8.9226876e-12
-6.2605e-08
9.4297187e-12
-8.5450597e-09
5.1930192e-12
4.0476783e-08
3.0665083e-08
-3.1774805e-12
3.067149e-08
-1.0052347e-11
4.0491202e-08
-8.2200807e-12
-8.5394493e-09
1.2422969e-14
-6.2610212e-08
8.3148771e-12
-6.2613292e-08
1.0083845e-11
-8.5468183e-09
3.1586177e-12
4.0483718e-08
3.0668247e-08
-4.8909522e-12
3.0676382e-08
-8.7992985e-12
4.0495114e-08
-8.3773458e-12
-8.5398687e-09
7.7760429e-14
-6.2618665e-08
8.439426e-12
-6.2621651e-08
8.8651719e-12
-8.5472413e-09
4.9421486e-12
4.0487644e-08
3.0673191e-08
-2.9273466e-12
3.0679316e-08
-9.4511425e-12
4.0501648e-08
-7.6773821e-12
-8.5416319e-09
5.2465152e-14
-6.2626385e-08
7.8404527e-12
-6.2629429e-08
9.5235467e-12
-8.5489142e-09
2.9212246e-12
4.0494256e-08
3.0676117e-08
-4.6372534e-12
3.0683955e-08
-8.215173e-12
4.0505229e-08
-7.8442455e-12
-8.5420005e-09
1.1469821e-13
-6.2634341e-08
7.9701795e-12
-6.2637282e-08
8.31891e-12
-8.5492604e-09
4.6997551e-12
4.0497878e-08
3.0680818e-08
-2.6874319e-12
3.0686648e-08
-8.8749416e-12
4.0511427e-08
-7.1587602e-12
-8.5437062e-09
8.6848828e-14
-6.2641577e-08
7.380307e-12
-6.2644566e-08
8.9822558e-12
-8.5508521e-09
2.6921144e-12
4.0504177e-08
3.0683515e-08
-4.3943809e-12
3.0691044e-08
-7.6562828e-12
4.0514692e-08
-7.3357636e-12
-8.5440246e-09
1.4592243e-13
-6.2649056e-08
7.5156811e-12
-6.2651933e-08
7.7918648e-12
-8.551126e-09
4.4662633e-12
4.0507506e-08
3.0687983e-08
-2.4580608e-12
3.0693508e-08
-8.3245479e-12
4.0520568e-08
-6.6649588e-12
-8.5456737e-09
1.1553234e-13
-6.2655827e-08
6.9351417e-12
-6.2658743e-08
8.4607998e-12
-8.5526415e-09
2.471651e-12
4.0513504e-08
3.0690459e-08
-4.1625702e-12
3.0697672e-08
-7.1232055e-12
4.0523532e-08
-6.8523968e-12
-8.5459426e-09
1.7151265e-13
-6.2662849e-08
7.0765834e-12
-6.2665646e-08
7.2847542e-12
-8.5528476e-09
4.2419836e-12
4.051655e-08
3.0694702e-08
-2.2393874e-12
3.0699917e-08
-7.8003288e-12
4.0529102e-08
-6.1962479e-12
-8.5475364e-09
1.3869279e-13
-6.2669174e-08
6.5055548e-12
-6.2672003e-08
7.9597811e-12
-8.5542918e-09
2.2600868e-12
4.0522258e-08
3.0696967e-08
-3.9418952e-12
3.070386e-08
-6.6161161e-12
4.0531779e-08
-6.3942096e-12
-8.5477566e-09
1.9173022e-13
-6.2675758e-08
6.6534158e-12
-6.2678463e-08
6.798068e-12
-8.5544345e-09
4.0271113e-12
4.0525032e-08
3.0700995e-08
-2.0314188e-12
3.0705898e-08
-7.3022788e-12
4.053706e-08
-5.7525071e-12
-8.549296e-09
1.5665733e-13
-6.2681658e-08
6.0920062e-12
-6.2684389e-08
7.4795719e-12
-8.5558121e-09
2.0575642e-12
4.0530463e-08
3.0703058e-08
-3.7322911e-12
3.0709631e-08
-6.1348495e-12
4.0539465e-08
-5.9609139e-12
-8.5494685e-09
2.0695764e-13
-6.2687824e-08
6.2465589e-12
-6.2690427e-08
6.3320681e-12
-8.5558959e-09
3.8217321e-12
4.0532976e-08
3.070688e-08
-1.8340367e-12
3.0711471e-08
-6.8300799e-12
4.0544471e-08
-5.3332993e-12
-8.550955e-09
1.6984914e-13
-6.2693317e-08
5.6948006e-12
-6.2695942e-08
7.0203193e-12
-8.5572115e-09
1.8641225e-12
4.0538141e-08
3.0708749e-08
-3.5335766e-12
3.0715005e-08
-5.6789557e-12
4.0546619e-08
-5.5519375e-12
-8.5510807e-09
2.1765146e-13
-6.2699086e-08
5.8562328e-12
-6.2701579e-08
5.8867993e-12
-8.5572406e-09
3.6258301e-12
4.0540404e-08
3.0712376e-08
-1.6470178e-12
3.0716658e-08
-6.383154e-12
4.0551364e-08
-4.937936e-12
-8.5525158e-09
1.7874637e-13
-6.2704193e-08
5.3140808e-12
-6.2706705e-08
6.5819591e-12
-8.5584986e-09
1.6797065e-12
4.0545315e-08
3.0714061e-08
-3.3454732e-12
3.0720004e-08
-5.2477515e-12
4.0553269e-08
-5.1664854e-12
-8.5525959e-09
2.2430578e-13
-6.2709582e-08
5.4824967e-12
-6.2711962e-08
5.4621035e-12
-8.5584769e-09
3.4392984e-12
4.054734e-08
3.0717501e-08
-1.4700531e-12
3.072148e-08
-5.9607136e-12
4.0557769e-08
-4.5655326e-12
-8.5539811e-09
1.8385038e-13
-6.2714322e-08
4.9498309e-12
-6.2716718e-08
6.1642336e-12
-8.5596816e-09
1.5041766e-12
4.0552009e-08
3.071901e-08
-3.1676237e-12
3.0724648e-08
-4.8403679e-12
4.0559444e-08
-4.8035911e-12
-8.5540169e-09
2.2742544e-13
-6.2719352e-08
5.1252541e-12
-6.2721615e-08
5.0576414e-12
-8.5596128e-09
3.2619488e-12
4.0553806e-08
3.0722272e-08
-1.3027636e-12
3.0725957e-08
-5.561806e-12
4.0563712e-08
-4.215057e-12
-8.5553537e-09
1.856623e-13
-6.2723743e-08
4.6018851e-12
-6.2726022e-08
5.7667137e-12
-8.560768e-09
1.3373194e-12
4.0558244e-08
3.0723614e-08
-2.9996087e-12
3.0728957e-08
-4.4557903e-12
4.056517e-08
-4.4621621e-12
-8.5553465e-09
2.275053e-13
-6.2728432e-08
4.7842648e-12
-6.2730578e-08
4.6729135e-12
-8.5606556e-09
3.0935244e-12
4.0559825e-08
3.0726708e-08
-1.1447174e-12
3.0730108e-08
-5.1853504e-12
4.056922e-08
-3.8853719e-12
-8.5566366e-09
1.8466612e-13
-6.2732493e-08
4.2699399e-12
-6.2734654e-08
5.3888216e-12
-8.5617649e-09
1.1788591e-12
4.0564044e-08
3.0727892e-08
-2.8409616e-12
3.0732949e-08
-4.0928947e-12
4.0570474e-08
-4.1410183e-12
-8.5565879e-09
2.2501694e-13
-6.2736858e-08
4.4591582e-12
-6.2738887e-08
4.3072831e-12
-8.5616122e-09
2.9337096e-12
4.0565419e-08
3.0730826e-08
-9.954419e-13
3.073395e-08
-4.8301734e-12
4.0574318e-08
-3.5752676e-12
-8.5578329e-09
1.81317e-13
-6.2740605e-08
3.9535696e-12
-6.274265e-08
5.0298528e-12
-8.562679e-09
1.0284678e-12
4.0569429e-08
3.0731859e-08
-2.691181e-12
3.0736642e-08
-3.7504796e-12
4.0575379e-08
-3.8389221e-12
-8.5577441e-09
2.2039823e-13
-6.2744664e-08
4.1494494e-12
-6.2746578e-08
3.9599987e-12
-8.5624889e-09
2.7821417e-12
4.0570608e-08
3.0734641e-08
-8.5443542e-13
3.0737502e-08
-4.4950378e-12
4.0579028e-08
-3.2834924e-12
-8.5589459e-09
1.7603378e-13
-6.2748114e-08
3.6522421e-12
-6.2750045e-08
4.688999e-12
-8.5635163e-09
8.8577531e-13
4.057442e-08
3.0735532e-08
-2.5497418e-12
3.0740052e-08
-3.4272927e-12
4.0579907e-08
-3.5546064e-12
-8.5588183e-09
2.1404835e-13
-6.2751883e-08
3.8545555e-12
-6.2753685e-08
3.6302156e-12
-8.5632915e-09
2.6384201e-12
4.0575413e-08
3.0738171e-08
-7.2117851e-13
3.0740779e-08
-4.1786666e-12
4.0583374e-08
-3.0087758e-12
-8.5599785e-09
1.691947e-13
-6.2755051e-08
3.3653353e-12
-6.2756872e-08
4.3653691e-12
-8.5642821e-09
7.5037883e-13
4.0579036e-08
3.0738926e-08
-2.4161056e-12
3.0743195e-08
-3.1220526e-12
4.0584081e-08
-3.2867954e-12
-8.5598137e-09
2.0632462e-13
-6.2758544e-08
3.5738118e-12
-6.276024e-08
3.3170161e-12
-8.564025e-09
2.5021156e-12
4.0579852e-08
3.0741428e-08
-5.9514123e-13
3.0743796e-08
-3.8797649e-12
4.0587374e-08
-2.7498475e-12
-8.560934e-09
1.6113514e-13
-6.2761446e-08
3.0921538e-12
-6.2763162e-08
4.0580088e-12
-8.5649816e-09
6.2185117e-13
4.0583296e-08
3.0742054e-08
-2.289727e-12
3.0746085e-08
-2.8334693e-12
4.0587919e-08
-3.0342214e-12
-8.5607333e-09
1.9754099e-13
-6.2764678e-08
3.3064888e-12
-6.276627e-08
3.019428e-12
-8.5646944e-09
2.3727789e-12
4.0583944e-08
3.0744427e-08
-4.7579088e-13
3.0746567e-08
-3.5970365e-12
4.0591049e-08
-2.5054528e-12
-8.5618154e-09
1.5214766e-13
-6.2767326e-08
2.8319444e-12
-6.2768941e-08
3.7659175e-12
-8.5656192e-09
4.997486e-13
4.0587218e-08
3.0744931e-08
-2.1700618e-12
3.0748737e-08
-2.5602583e-12
4.059144e-08
-2.795639e-12
-8.5615802e-09
1.8796938e-13
-6.277031e-08
3.0518061e-12
-6.2771805e-08
2.7364417e-12
-8.5653038e-09
2.2499476e-12
4.0587706e-08
3.0747181e-08
-3.6259829e-13
3.0749105e-08
-3.3291983e-12
4.0594416e-08
-2.2743649e-12
-8.5626256e-09
1.424843e-13
-6.2772718e-08
2.5839105e-12
-6.2774238e-08
3.4880659e-12
-8.5661988e-09
3.8361706e-13
4.0590818e-08
3.0747569e-08
-2.0565725e-12
3.0751161e-08
-2.3011545e-12
4.0594661e-08
-2.5698354e-12
-8.5623573e-09
1.7784187e-13
-6.2775466e-08
2.8089478e-12
-6.2776869e-08
2.4670252e-12
-8.5658571e-09
2.1331525e-12
4.0591153e-08
3.0749703e-08
-2.5504241e-13
3.0751422e-08
-3.0749918e-12
4.059749e-08
-2.0553938e-12
-8.5633675e-09
1.3235808e-13
-6.2777645e-08
2.347226e-12
-6.2779075e-08
3.2234089e-12
-8.5667242e-09
2.7299876e-13
4.0594111e-08
3.074998e-08
-1.9487321e-12
3.075337e-08
-2.0549219e-12
4.0597596e-08
-2.3556388e-12
-8.5630673e-09
1.673531e-13
-6.2780168e-08
2.5770745e-12
-6.2781485e-08
2.2101373e-12
-8.5663575e-09
2.0219238e-12
4.05943e-08
3.0752002e-08
-1.5261455e-13
3.0753528e-08
-2.8331927e-12
4.0600286e-08
-1.8473935e-12
-8.5640438e-09
1.219464e-13
-6.2782129e-08
2.1210474e-12
-6.2783475e-08
2.9708993e-12
-8.5671984e-09
1.674367e-13
4.0597111e-08
3.0752174e-08
-1.8460283e-12
3.0755374e-08
-1.8203621e-12
4.060026e-08
-2.1519241e-12
-8.5637129e-09
1.5666393e-13
-6.2784438e-08
2.3553359e-12
-6.2785674e-08
1.9647399e-12
-8.5668083e-09
1.9157956e-12
4.059716e-08
3.0754089e-08
-5.4821182e-14
3.0755434e-08
-2.6026182e-12
4.0602817e-08
-1.649267e-12
-8.564657e-09
1.113946e-13
-6.278619e-08
1.9045255e-12
-6.2787459e-08
2.7294982e-12
-8.5676243e-09
6.6479786e-14
4.0599831e-08
3.075416e-08
-1.7479662e-12
3.0757182e-08
-1.5963214e-12
4.0602665e-08
-1.9576178e-12
-8.5642965e-09
1.459048e-13
-6.2788294e-08
2.1428809e-12
-6.2789456e-08
1.7298082e-12
-8.5672118e-09
1.8143101e-12
4.0599747e-08
3.0755974e-08
3.8812404e-14
3.0757148e-08
-2.3821329e-12
4.0605095e-08
-1.4599712e-12
-8.5652095e-09
1.0081983e-13
-6.2789846e-08
1.6968155e-12
-6.2791044e-08
2.4981856e-12
-8.5680043e-09
-3.0313524e-14
4.0602283e-08
3.0755948e-08
-1.6540719e-12
3.0758802e-08
-1.3816951e-12
4.0604823e-08
-1.7717014e-12
-8.5648204e-09
1.3517969e-13
-6.2791753e-08
1.9388682e-12
-6.2792848e-08
1.5043405e-12
-8.5675705e-09
1.717022e-12
4.0602071e-08
3.0757665e-08
1.287403e-13
3.0758678e-08
-2.1706542e-12
4.060713e-08
-1.2785183e-12
-8.5657034e-09
9.0314499e-14
-6.2793114e-08
1.4970864e-12
-6.2794246e-08
2.2759693e-12
-8.5683406e-09
-1.2337152e-13
4.0604478e-08
3.0757546e-08
-1.5638932e-12
3.0760241e-08
-1.1754342e-12
4.0606742e-08
-1.5932136e-12
-8.5652867e-09
1.2457016e-13
-6.2794832e-08
1.742475e-12
-6.2795865e-08
1.2873663e-12
-8.5678864e-09
1.6235012e-12
4.0604142e-08
3.0759169e-08
2.1539386e-13
3.0760031e-08
-1.9671563e-12
4.0608933e-08
-1.1039789e-12
-8.5661408e-09
7.9950705e-14
-6.2796008e-08
1.3045298e-12
-6.2797081e-08
2.0618926e-12
-8.568635e-09
-2.1310602e-13
4.0606424e-08
3.075896e-08
-1.4770026e-12
3.0761508e-08
-9.7654708e-13
4.0608432e-08
-1.4212522e-12
-8.5656974e-09
1.1413877e-13
-6.2797544e-08
1.5529053e-12
-6.2798521e-08
1.077955e-12
-8.568161e-09
1.5333368e-12
4.0605969e-08
3.0760493e-08
2.9918009e-13
3.0761214e-08
-1.7706735e-12
4.061051e-08
-9.3548331e-13
-8.5665235e-09
6.9782715e-14
-6.2798541e-08
1.1183688e-12
-6.2799561e-08
1.8550427e-12
-8.568889e-09
-2.9990979e-13
4.0608131e-08
3.0760197e-08
-1.3929989e-12
3.0762606e-08
-7.8410378e-13
4.0609901e-08
-1.2549761e-12
-8.566054e-09
1.0393272e-13
-6.2799901e-08
1.3693988e-12
-6.2800828e-08
8.7522189e-13
-8.568396e-09
1.4461382e-12
4.060756e-08
3.0761643e-08
3.8047961e-13
3.0762231e-08
-1.5803046e-12
4.061187e-08
-7.7222352e-13
-8.5668532e-09
5.9852419e-14
-6.2800724e-08
9.378646e-13
-6.2801697e-08
1.6545566e-12
-8.569104e-09
-3.8415322e-13
4.0609606e-08
3.0761263e-08
-1.3115078e-12
3.0763541e-08
-5.9724017e-13
4.0611155e-08
-1.0936064e-12
-8.5663583e-09
9.3988322e-14
-6.2801913e-08
1.1912372e-12
-6.2802796e-08
6.7833604e-13
-8.5685924e-09
1.3615404e-12
4.0608923e-08
3.0762624e-08
4.5964568e-13
3.0763087e-08
-1.3952153e-12
4.0613018e-08
-6.1345448e-13
-8.5671311e-09
5.0191672e-14
-6.2802569e-08
7.6232513e-13
-6.2803499e-08
1.4596294e-12
-8.5692811e-09
-4.6618152e-13
4.0610856e-08
3.0762162e-08
-1.2321849e-12
3.0764318e-08
-4.151604e-13
4.0612201e-08
-9.3642829e-13
-8.5666115e-09
8.433348e-14
-6.2803591e-08
1.0177531e-12
-6.2804434e-08
4.8652732e-13
-8.5687513e-09
1.2792047e-12
4.0610063e-08
3.076344e-08
5.3700136e-13
3.0763786e-08
-1.2146421e-12
4.0613961e-08
-4.5849565e-13
-8.5673588e-09
4.0825972e-14
-6.2804082e-08
5.9111241e-13
-6.2804976e-08
1.2695205e-12
-8.5694212e-09
-5.4631247e-13
4.0611886e-08
3.0762898e-08
-1.154717e-12
3.076494e-08
-2.3714096e-13
4.0613042e-08
-7.8279297e-13
-8.5668148e-09
7.4991977e-14
-6.2804941e-08
8.4833712e-13
-6.2805751e-08
2.9909353e-13
-8.5688734e-09
1.1988222e-12
4.0610986e-08
3.0764096e-08
6.1283848e-13
3.0764332e-08
-1.0378962e-12
4.0614701e-08
-3.0673341e-13
-8.5675372e-09
3.1778194e-14
-6.2805271e-08
4.2365038e-13
-6.2806135e-08
1.0835611e-12
-8.5695248e-09
-6.2483334e-13
4.0612701e-08
3.0763476e-08
-1.0788237e-12
3.076541e-08
-6.2534569e-14
4.0613684e-08
-6.3211916e-13
-8.5669694e-09
6.5986254e-14
-6.2805971e-08
6.8244573e-13
-6.2806753e-08
1.1540714e-13
-8.5689594e-09
1.1201169e-12
4.0611696e-08
3.0764595e-08
6.8741538e-13
3.0764728e-08
-8.6436729e-13
4.0615244e-08
-1.5762233e-13
-8.5676675e-09
2.307172e-14
-6.2806143e-08
2.5943269e-13
-6.2806981e-08
9.0116148e-13
-8.5695927e-09
-7.0199754e-13
4.0613307e-08
3.0763897e-08
-1.0042598e-12
3.0765731e-08
1.0922575e-13
4.061413e-08
-4.8389585e-13
-8.5670763e-09
5.7341356e-14
-6.2806686e-08
5.1960944e-13
-6.2807445e-08
-6.5076343e-14
-8.5690097e-09
1.0428484e-12
4.0612198e-08
3.0764939e-08
7.6095465e-13