/*--------------------------------*- C++ -*----------------------------------*\
| =========                 |                                                 |
| \\      /  F ield         | OpenFOAM: The Open Source CFD Toolbox           |
|  \\    /   O peration     | Version:  5.x                                   |
|   \\  /    A nd           | Web:      www.OpenFOAM.org                      |
|    \\/     M anipulation  |                                                 |
\*---------------------------------------------------------------------------*/
FoamFile
{
    version     2.0;
    format      ascii;
    class       volSymmTensorField;
    location    "10";
    object      sigma;
}
// * * * * * * * * * * * * * * * * * * * * * * * * * * * * * * * * * * * * * //

dimensions      [0 2 -2 0 0 0 0];

internalField   nonuniform List<symmTensor> 
1920
(
(0.0034772295 0.017596244 0 -0.010680682 0 0)
(-0.00050658028 0.007262432 0 0.0018274229 0 0)
(-0.0022755705 0.0042679732 0 0.0017987508 0 0)
(-0.0018895744 0.0013335479 0 0.0018702487 0 0)
(-0.0018895384 -0.0013335577 0 0.0018702118 0 0)
(-0.0022755754 -0.0042679313 0 0.0017987576 0 0)
(-0.00050658754 -0.0072624334 0 0.0018274299 0 0)
(0.0034772281 -0.017596244 0 -0.010680678 0 0)
(0.0058082508 0.012386315 0 -0.0061784871 0 0)
(0.00070449484 0.0026017137 0 0.00054918853 0 0)
(-0.0035438982 0.0010526581 0 0.0030309642 0 0)
(-0.0036338425 0.00052688924 0 0.0033401405 0 0)
(-0.0036338193 -0.00052689014 0 0.0033401155 0 0)
(-0.0035439135 -0.0010525795 0 0.0030309814 0 0)
(0.00070450175 -0.0026017026 0 0.00054917744 0 0)
(0.0058082509 -0.012386316 0 -0.006178488 0 0)
(0.0053651021 0.010704941 0 -0.0070656009 0 0)
(0.0013458853 0.0016675663 0 -0.00074184612 0 0)
(-0.0030417069 0.00046231187 0 0.002729499 0 0)
(-0.0039188043 0.00015850634 0 0.0037296072 0 0)
(-0.003918808 -0.00015851028 0 0.0037296132 0 0)
(-0.003041659 -0.00046238944 0 0.0027294486 0 0)
(0.0013458938 -0.0016675769 0 -0.00074185313 0 0)
(0.0053651049 -0.010704942 0 -0.0070656056 0 0)
(0.004208402 0.0098830507 0 -0.0058751849 0 0)
(0.0015238413 0.0021682416 0 -0.0012931938 0 0)
(-0.002328604 0.00047148268 0 0.0021825131 0 0)
(-0.003626655 6.4418539e-05 0 0.0035560036 0 0)
(-0.0036265802 -6.4433202e-05 0 0.0035559314 0 0)
(-0.002328645 -0.00047141512 0 0.0021825549 0 0)
(0.0015238475 -0.0021682292 0 -0.001293199 0 0)
(0.0042084081 -0.0098830502 0 -0.0058751909 0 0)
(0.0032427622 0.0095101926 0 -0.0045229513 0 0)
(0.0014218783 0.0029102186 0 -0.0013801909 0 0)
(-0.0016681623 0.00089764375 0 0.00157007 0 0)
(-0.0030837641 0.00016385473 0 0.0030422654 0 0)
(-0.0030839542 -0.00016384705 0 0.0030424556 0 0)
(-0.001668511 -0.00089744802 0 0.0015704147 0 0)
(0.0014218709 -0.0029102102 0 -0.0013801835 0 0)
(0.0032427651 -0.0095101852 0 -0.0045229539 0 0)
(0.0024788515 0.00924549 0 -0.003501045 0 0)
(0.0012169489 0.0037016662 0 -0.0012916224 0 0)
(-0.0012043905 0.0013699151 0 0.0011218108 0 0)
(-0.0022927321 0.00034262824 0 0.0022694717 0 0)
(-0.0022926688 -0.00034266062 0 0.0022694065 0 0)
(-0.0012040368 -0.0013702189 0 0.0011214585 0 0)
(0.0012169848 -0.0037016608 0 -0.0012916587 0 0)
(0.002478864 -0.009245485 0 -0.003501057 0 0)
(0.0017098516 0.0089801824 0 -0.0025942247 0 0)
(0.00094379775 0.0044035927 0 -0.0011074723 0 0)
(-0.00079891073 0.001886396 0 0.00072182117 0 0)
(-0.0017488543 0.00051275879 0 0.0017378014 0 0)
(-0.001748825 -0.00051277388 0 0.0017377728 0 0)
(-0.00079879593 -0.0018864782 0 0.00072170506 0 0)
(0.00094381953 -0.0044035879 0 -0.0011074934 0 0)
(0.0017098539 -0.0089801679 0 -0.0025942261 0 0)
(0.0011904011 0.008805848 0 -0.0020039125 0 0)
(0.00073898808 0.0048243296 0 -0.00095984921 0 0)
(-0.00051286046 0.0023468635 0 0.00043284441 0 0)
(-0.0012991449 0.00066857245 0 0.001294911 0 0)
(-0.0012992029 -0.00066855902 0 0.0012949679 0 0)
(-0.00051285382 -0.0023468429 0 0.00043283802 0 0)
(0.00073899218 -0.0048243456 0 -0.00095985532 0 0)
(0.0011903981 -0.0088058321 0 -0.0020039074 0 0)
(0.00081652072 0.008686794 0 -0.0015871511 0 0)
(0.0005320153 0.0052224931 0 -0.00079895713 0 0)
(-0.00033690568 0.0026838361 0 0.00024868287 0 0)
(-0.00096724892 0.00079160167 0 0.00096451734 0 0)
(-0.00096702013 -0.00079169364 0 0.00096429198 0 0)
(-0.00033685631 -0.0026838929 0 0.00024863355 0 0)
(0.00053204765 -0.0052224516 0 -0.0007989882 0 0)
(0.00081653959 -0.0086867784 0 -0.0015871689 0 0)
(0.00054857264 0.0086032212 0 -0.0012928185 0 0)
(0.0003851343 0.0054737566 0 -0.00068314503 0 0)
(-0.00021387877 0.0029568153 0 0.00011577405 0 0)
(-0.00065555333 0.00091426778 0 0.00065190996 0 0)
(-0.0006557767 -0.00091418718 0 0.0006521317 0 0)
(-0.00021390002 -0.0029567481 0 0.0001157969 0 0)
(0.00038512882 -0.0054737722 0 -0.00068314048 0 0)
(0.00054856512 -0.0086031977 0 -0.0012928081 0 0)
(0.00036078284 0.0085462921 0 -0.0010893089 0 0)
(0.00027277354 0.0056540747 0 -0.00059247931 0 0)
(-0.00013324515 0.0031604804 0 2.6383129e-05 0 0)
(-0.00045465612 0.00099732406 0 0.00044889568 0 0)
(-0.0004545769 -0.0009973658 0 0.00044881622 0 0)
(-0.0001332097 -0.0031605457 0 2.6345717e-05 0 0)
(0.00027279839 -0.0056540306 0 -0.00059250183 0 0)
(0.00036080218 -0.0085462731 0 -0.0010893261 0 0)
(0.00023291339 0.0085085021 0 -0.00095223956 0 0)
(0.00018778764 0.0057827969 0 -0.00052230801 0 0)
(-8.1564397e-05 0.0033071176 0 -3.2188698e-05 0 0)
(-0.00030201257 0.0010632367 0 0.00029402151 0 0)
(-0.00030200965 -0.0010632452 0 0.00029401799 0 0)
(-8.1585707e-05 -0.0033070586 0 -3.2165683e-05 0 0)
(0.00018777454 -0.005782808 0 -0.00052229553 0 0)
(0.0002329033 -0.0085084752 0 -0.0009522261 0 0)
(0.00014790672 0.0084839589 0 -0.00086191419 0 0)
(0.0001264097 0.0058708946 0 -0.00047071345 0 0)
(-4.8918544e-05 0.0034104346 0 -6.9984962e-05 0 0)
(-0.00019768926 0.0011097866 0 0.00018781138 0 0)
(-0.00019780167 -0.0011097577 0 0.00018792345 0 0)
(-4.8903405e-05 -0.0034104888 0 -7.0002108e-05 0 0)
(0.00012642394 -0.0058708574 0 -0.00047072528 0 0)
(0.00014792052 -0.0084839379 0 -0.00086192496 0 0)
(9.2258779e-05 0.0084682685 0 -0.00080322355 0 0)
(8.3434651e-05 0.0059295839 0 -0.00043407423 0 0)
(-2.8600432e-05 0.0034817769 0 -9.3990117e-05 0 0)
(-0.00012826225 0.0011418607 0 0.00011693473 0 0)
(-0.00012809283 -0.0011419423 0 0.00011676468 0 0)
(-2.8619721e-05 -0.0034817376 0 -9.3969691e-05 0 0)
(8.3417633e-05 -0.0059295903 0 -0.00043405716 0 0)
(9.2249601e-05 -0.0084682428 0 -0.00080321083 0 0)
(5.6402871e-05 0.008458423 0 -0.00076567186 0 0)
(5.4051788e-05 0.0059679405 0 -0.00040871114 0 0)
(-1.6233028e-05 0.0035300198 0 -0.00010891033 0 0)
(-8.2554775e-05 0.0011635556 0 7.0181706e-05 0 0)
(-8.267205e-05 -0.0011635255 0 7.0298959e-05 0 0)
(-1.6232331e-05 -0.0035300589 0 -0.0001089127 0 0)
(5.4055894e-05 -0.0059679148 0 -0.00040871322 0 0)
(5.6409907e-05 -0.0084584025 0 -0.00076567554 0 0)
(3.3703975e-05 0.008452379 0 -0.00074205956 0 0)
(3.4354656e-05 0.0059925611 0 -0.00039152453 0 0)
(-8.8245575e-06 0.0035621567 0 -0.00011803283 0 0)
(-5.1276375e-05 0.0011787098 0 3.8173241e-05 0 0)
(-5.0667304e-05 -0.001179 0 3.7560626e-05 0 0)
(-8.84043e-06 -0.0035621376 0 -0.00011801653 0 0)
(3.4338424e-05 -0.0059925635 0 -0.00039150782 0 0)
(3.3696082e-05 -0.0084523566 0 -0.00074204826 0 0)
(1.9566258e-05 0.0084487584 0 -0.00072745717 0 0)
(2.1373832e-05 0.006008131 0 -0.00038008225 0 0)
(-4.528233e-06 0.0035831034 0 -0.0001234485 0 0)
(-3.1155253e-05 0.001188705 0 1.7563486e-05 0 0)
(-3.2037349e-05 -0.0011883245 0 1.8449991e-05 0 0)
(-4.5346872e-06 -0.0035831287 0 -0.00012344331 0 0)
(2.137103e-05 -0.0060081163 0 -0.00038007801 0 0)
(1.9567857e-05 -0.00844874 0 -0.00072745555 0 0)
(1.0964281e-05 0.0084466628 0 -0.00071864046 0 0)
(1.3000764e-05 0.0060177567 0 -0.0003726314 0 0)
(-2.0966e-06 0.0035965867 0 -0.00012659509 0 0)
(-1.9094028e-05 0.0011948689 0 5.1876868e-06 0 0)
(-1.8488678e-05 -0.0011951698 0 4.5780977e-06 0 0)
(-2.1084857e-06 -0.0035965826 0 -0.00012658328 0 0)
(1.2987901e-05 -0.0060177565 0 -0.00037261796 0 0)
(1.0957784e-05 -0.0084466444 0 -0.00071863089 0 0)
(5.8335169e-06 0.0084454991 0 -0.00071342764 0 0)
(7.6743189e-06 0.006023622 0 -0.00036784851 0 0)
(-7.9245764e-07 0.0036050409 0 -0.00012834128 0 0)
(-1.0708626e-05 0.001199213 0 -3.4031508e-06 0 0)
(-1.1166193e-05 -0.0011990152 0 -2.9431246e-06 0 0)
(-8.0054709e-07 -0.0036050557 0 -0.00012833419 0 0)
(7.6683291e-06 -0.0060236151 0 -0.00036784157 0 0)
(5.8321681e-06 -0.0084454836 0 -0.00071342346 0 0)
(2.9583852e-06 0.0084449097 0 -0.00071053941 0 0)
(4.3826068e-06 0.0060270786 0 -0.00036486426 0 0)
(-1.3041017e-07 0.0036102768 0 -0.00012927232 0 0)
(-6.1030327e-06 0.0012016886 0 -8.1321284e-06 0 0)
(-5.6412485e-06 -0.0012019318 0 -8.5975499e-06 0 0)
(-1.3876117e-07 -0.0036102811 0 -0.00012926443 0 0)
(4.373679e-06 -0.006027077 0 -0.00036485481 0 0)
(2.9536073e-06 -0.0084448948 0 -0.00071053202 0 0)
(1.2441901e-06 0.0084446142 0 -0.00070883947 0 0)
(2.372064e-06 0.0060290803 0 -0.00036302607 0 0)
(1.6695268e-07 0.0036134085 0 -0.00012972495 0 0)
(-2.8979695e-06 0.0012034351 0 -1.1415078e-05 0 0)
(-3.3914725e-06 -0.0012032021 0 -1.0918146e-05 0 0)
(1.5980695e-07 -0.0036134166 0 -0.00012971858 0 0)
(2.3652816e-06 -0.0060290777 0 -0.00036301871 0 0)
(1.2416018e-06 -0.0084446011 0 -0.00070883447 0 0)
(3.7492367e-07 0.0084445087 0 -0.00070799697 0 0)
(1.1995212e-06 0.0060301748 0 -0.00036194139 0 0)
(2.7140706e-07 0.0036152482 0 -0.00012991823 0 0)
(-1.6045259e-06 0.0012041931 0 -1.2749314e-05 0 0)
(-1.363518e-06 -0.0012043338 0 -1.2992852e-05 0 0)
(2.6541854e-07 -0.0036152555 0 -0.00012991282 0 0)
(1.1936942e-06 -0.0060301724 0 -0.00036193513 0 0)
(3.7175945e-07 -0.0084444966 0 -0.00070799164 0 0)
(-5.4485597e-08 0.0084444986 0 -0.00070759462 0 0)
(5.2274728e-07 0.0060307525 0 -0.00036131032 0 0)
(2.8059707e-07 0.0036162749 0 -0.00012997278 0 0)
(-4.5803787e-07 0.0012048623 0 -1.3922581e-05 0 0)
(-4.7115023e-07 -0.0012048698 0 -1.3909648e-05 0 0)
(2.7500297e-07 -0.0036162795 0 -0.00012996786 0 0)
(5.1643047e-07 -0.0060307515 0 -0.00036130364 0 0)
(-5.7822192e-08 -0.0084444876 0 -0.00070758931 0 0)
(-2.3675843e-07 0.0084445322 0 -0.00070743718 0 0)
(1.6712985e-07 0.006031021 0 -0.00036097142 0 0)
(2.4628631e-07 0.0036168245 0 -0.00012996179 0 0)
(-5.7710111e-08 0.0012051247 0 -1.4334769e-05 0 0)
(-9.7689855e-08 -0.0012051139 0 -1.4295006e-05 0 0)
(2.4146179e-07 -0.0036168316 0 -0.00012995753 0 0)
(1.6321339e-07 -0.0060310187 0 -0.00036096717 0 0)
(-2.3948019e-07 -0.0084445222 0 -0.00070743266 0 0)
(-2.8123728e-07 0.0084445798 0 -0.00070741238 0 0)
(-9.8493529e-09 0.0060311292 0 -0.00036080085 0 0)
(2.0095358e-07 0.0036170885 0 -0.00012992429 0 0)
(1.6917349e-07 0.0012052849 0 -1.4568269e-05 0 0)
(1.5658054e-07 -0.0012052885 0 -1.455592e-05 0 0)
(1.9673147e-07 -0.0036170921 0 -0.00012992059 0 0)
(-1.5254181e-08 -0.0060311284 0 -0.00036079515 0 0)
(-2.8403856e-07 -0.0084445706 0 -0.00070740798 0 0)
(-2.647717e-07 0.0084446293 0 -0.00070744532 0 0)
(-9.7909969e-08 0.0060311588 0 -0.0003607104 0 0)
(1.5826665e-07 0.0036171954 0 -0.00012988405 0 0)
(2.215173e-07 0.0012053412 0 -1.4622673e-05 0 0)
(2.0250324e-07 -0.0012053365 0 -1.4603849e-05 0 0)
(1.53854e-07 -0.0036172005 0 -0.00012988007 0 0)
(-1.01873e-07 -0.0060311576 0 -0.00036070618 0 0)
(-2.6731437e-07 -0.0084446208 0 -0.00070744128 0 0)
(-2.2463398e-07 0.0084446682 0 -0.00070749652 0 0)
(-1.1821233e-07 0.0060311418 0 -0.00036068796 0 0)
(1.1673762e-07 0.0036172305 0 -0.00012984032 0 0)
(2.2270387e-07 0.0012053584 0 -1.4624608e-05 0 0)
(2.2300189e-07 -0.0012053672 0 -1.4625156e-05 0 0)
(1.1266189e-07 -0.0036172343 0 -0.0001298367 0 0)
(-1.2292396e-07 -0.0060311405 0 -0.00036068287 0 0)
(-2.267699e-07 -0.0084446606 0 -0.00070749308 0 0)
(-1.7677241e-07 0.0084447039 0 -0.0007075534 0 0)
(-1.151543e-07 0.0060311074 0 -0.000360687 0 0)
(8.3211851e-08 0.0036172158 0 -0.00012980459 0 0)
(2.0255415e-07 0.0012053645 0 -1.4604039e-05 0 0)
(2.0150509e-07 -0.0012053703 0 -1.4603299e-05 0 0)
(7.9707833e-08 -0.00361722 0 -0.0001298014 0 0)
(-1.1877014e-07 -0.0060311066 0 -0.00036068313 0 0)
(-1.7866354e-07 -0.0084446972 0 -0.0007075503 0 0)
(-1.3552426e-07 0.0084447285 0 -0.00070760028 0 0)
(-9.6773574e-08 0.0060310742 0 -0.00036070198 0 0)
(5.8208335e-08 0.0036171861 0 -0.00012977622 0 0)
(1.7033155e-07 0.0012053549 0 -1.4571306e-05 0 0)
(1.6892495e-07 -0.0012053619 0 -1.4570073e-05 0 0)
(5.4824581e-08 -0.0036171893 0 -0.00012977319 0 0)
(-1.0071913e-07 -0.0060310741 0 -0.00036069777 0 0)
(-1.3750258e-07 -0.0084447219 0 -0.00070759718 0 0)
(-1.0097694e-07 0.0084447486 0 -0.0007076396 0 0)
(-7.8147821e-08 0.0060310434 0 -0.0003607166 0 0)
(3.9554322e-08 0.0036171513 0 -0.00012975534 0 0)
(1.3173989e-07 0.0012053426 0 -1.4531743e-05 0 0)
(1.3042412e-07 -0.001205348 0 -1.4530681e-05 0 0)
(3.6669127e-08 -0.0036171552 0 -0.00012975274 0 0)
(-8.1345259e-08 -0.0060310428 0 -0.00036071324 0 0)
(-1.0264388e-07 -0.0084447432 0 -0.00070763692 0 0)
(-7.2398363e-08 0.0084447626 0 -0.00070767067 0 0)
(-6.0240525e-08 0.0060310185 0 -0.00036073276 0 0)
(2.7324867e-08 0.0036171186 0 -0.00012974049 0 0)
(1.0358402e-07 0.0012053316 0 -1.4503058e-05 0 0)
(1.011197e-07 -0.0012053362 0 -1.450073e-05 0 0)
(2.4255989e-08 -0.0036171211 0 -0.00012973773 0 0)
(-6.362835e-08 -0.0060310182 0 -0.00036072914 0 0)
(-7.4025485e-08 -0.0084447573 0 -0.00070766811 0 0)
(-5.2064868e-08 0.0084447737 0 -0.00070769348 0 0)
(-4.5044116e-08 0.0060309981 0 -0.00036074527 0 0)
(1.8613195e-08 0.0036170952 0 -0.00012973031 0 0)
(7.3137512e-08 0.0012053181 0 -1.4471795e-05 0 0)
(7.188328e-08 -0.0012053223 0 -1.4470745e-05 0 0)
(1.5755076e-08 -0.0036170981 0 -0.00012972768 0 0)
(-4.7870462e-08 -0.006030998 0 -0.0003607423 0 0)
(-5.3514121e-08 -0.0084447694 0 -0.00070769119 0 0)
(-3.5970034e-08 0.0084447806 0 -0.00070771051 0 0)
(-3.3232112e-08 0.006030983 0 -0.00036075648 0 0)
(1.3946085e-08 0.0036170744 0 -0.0001297237 0 0)
(5.4518014e-08 0.0012053108 0 -1.4452893e-05 0 0)
(5.3249878e-08 -0.0012053142 0 -1.4451738e-05 0 0)
(1.1464722e-08 -0.0036170766 0 -0.00012972146 0 0)
(-3.599571e-08 -0.0060309829 0 -0.00036075352 0 0)
(-3.7354868e-08 -0.0084447763 0 -0.00070770835 0 0)
(-2.5422535e-08 0.0084447863 0 -0.00070772235 0 0)
(-2.3816503e-08 0.0060309717 0 -0.00036076429 0 0)
(9.0496175e-09 0.0036170599 0 -0.00012971827 0 0)
(3.7109538e-08 0.0012053023 0 -1.4434957e-05 0 0)
(3.6058514e-08 -0.0012053049 0 -1.443405e-05 0 0)
(6.6940451e-09 -0.0036170621 0 -0.00012971609 0 0)
(-2.6170844e-08 -0.0060309717 0 -0.0003607618 0 0)
(-2.6649519e-08 -0.0084447828 0 -0.00070772043 0 0)
(-1.7298826e-08 0.0084447896 0 -0.00070773075 0 0)
(-1.73144e-08 0.0060309633 0 -0.00036077074 0 0)
(6.7232818e-09 0.0036170475 0 -0.00012971476 0 0)
(2.7222977e-08 0.0012052988 0 -1.442499e-05 0 0)
(2.653325e-08 -0.0012053014 0 -1.442439e-05 0 0)
(4.8131544e-09 -0.0036170494 0 -0.00012971301 0 0)
(-1.9511346e-08 -0.0060309633 0 -0.00036076838 0 0)
(-1.8467887e-08 -0.0084447863 0 -0.00070772893 0 0)
(-1.2268095e-08 0.0084447924 0 -0.00070773653 0 0)
(-1.191132e-08 0.0060309573 0 -0.00036077506 0 0)
(4.4235946e-09 0.0036170396 0 -0.00012971233 0 0)
(1.9093934e-08 0.0012052945 0 -1.4416536e-05 0 0)
(1.8227971e-08 -0.0012052964 0 -1.4415777e-05 0 0)
(2.6539683e-09 -0.0036170414 0 -0.00012971069 0 0)
(-1.3804052e-08 -0.0060309575 0 -0.00036077304 0 0)
(-1.330266e-08 -0.0084447897 0 -0.00070773492 0 0)
(-8.4434579e-09 0.0084447941 0 -0.00070774035 0 0)
(-8.9437965e-09 0.006030953 0 -0.00036077828 0 0)
(3.4838144e-09 0.0036170328 0 -0.0001297106 0 0)
(1.4021851e-08 0.0012052929 0 -1.4411488e-05 0 0)
(1.3656533e-08 -0.0012052951 0 -1.4411196e-05 0 0)
(2.0576634e-09 -0.0036170344 0 -0.0001297093 0 0)
(-1.0645121e-08 -0.0060309532 0 -0.00036077644 0 0)
(-9.4123947e-09 -0.0084447915 0 -0.00070773885 0 0)
(-6.2693084e-09 0.0084447955 0 -0.00070774305 0 0)
(-5.9579497e-09 0.0060309499 0 -0.0003607804 0 0)
(2.3298312e-09 0.0036170285 0 -0.00012970953 0 0)
(1.0409191e-08 0.0012052909 0 -1.4407653e-05 0 0)
(9.8605339e-09 -0.0012052926 0 -1.4407195e-05 0 0)
(1.0607774e-09 -0.0036170301 0 -0.00012970837 0 0)
(-7.408819e-09 -0.0060309502 0 -0.00036077884 0 0)
(-7.1183996e-09 -0.0084447934 0 -0.00070774172 0 0)
(-4.493606e-09 0.0084447964 0 -0.00070774471 0 0)
(-4.9415063e-09 0.0060309478 0 -0.00036078184 0 0)
(2.099892e-09 0.0036170248 0 -0.00012970868 0 0)
(7.9350341e-09 0.00120529 0 -1.4405257e-05 0 0)
(7.7558293e-09 -0.0012052921 0 -1.4405141e-05 0 0)
(1.0906417e-09 -0.0036170261 0 -0.00012970779 0 0)
(-6.2073871e-09 -0.0060309481 0 -0.00036078046 0 0)
(-5.2733038e-09 -0.0084447944 0 -0.00070774348 0 0)
(-3.7095258e-09 0.0084447973 0 -0.00070774592 0 0)
(-3.2531652e-09 0.0060309462 0 -0.00036078277 0 0)
(1.4103408e-09 0.0036170227 0 -0.00012970821 0 0)
(6.3441645e-09 0.001205289 0 -1.4403489e-05 0 0)
(6.0399815e-09 -0.0012052905 0 -1.4403266e-05 0 0)
(5.505583e-10 -0.0036170241 0 -0.00012970744 0 0)
(-4.3144728e-09 -0.0060309466 0 -0.00036078162 0 0)
(-4.3835056e-09 -0.0084447956 0 -0.00070774485 0 0)
(-2.8062582e-09 0.0084447979 0 -0.00070774665 0 0)
(-3.1768238e-09 0.0060309452 0 -0.00036078335 0 0)
(1.5028886e-09 0.0036170204 0 -0.00012970777 0 0)
(5.1476784e-09 0.0012052885 0 -1.4402398e-05 0 0)
(5.0602584e-09 -0.0012052904 0 -1.4402364e-05 0 0)
(8.3775571e-10 -0.0036170215 0 -0.0001297072 0 0)
(-4.0803176e-09 -0.0060309455 0 -0.00036078236 0 0)
(-3.4163387e-09 -0.0084447963 0 -0.00070774567 0 0)
(-2.6404814e-09 0.0084447984 0 -0.00070774721 0 0)
(-2.1002903e-09 0.0060309443 0 -0.00036078372 0 0)
(9.8309868e-10 0.0036170195 0 -0.00012970754 0 0)
(4.4772269e-09 0.0012052878 0 -1.4401571e-05 0 0)
(4.3116368e-09 -0.0012052892 0 -1.4401479e-05 0 0)
(4.4371766e-10 -0.0036170207 0 -0.00012970708 0 0)
(-2.8455502e-09 -0.0060309446 0 -0.0003607829 0 0)
(-3.1633995e-09 -0.0084447971 0 -0.00070774636 0 0)
(-2.0862828e-09 0.008444799 0 -0.00070774757 0 0)
(-2.429706e-09 0.0060309437 0 -0.00036078394 0 0)
(1.2108244e-09 0.0036170179 0 -0.00012970728 0 0)
(3.8493917e-09 0.0012052876 0 -1.4401063e-05 0 0)
(3.8166281e-09 -0.0012052893 0 -1.4401074e-05 0 0)
(8.0832668e-10 -0.0036170188 0 -0.00012970697 0 0)
(-3.050841e-09 -0.006030944 0 -0.00036078325 0 0)
(-2.5537847e-09 -0.0084447977 0 -0.00070774679 0 0)
(-2.1758625e-09 0.0084447994 0 -0.00070774786 0 0)
(-1.6111713e-09 0.0060309432 0 -0.00036078408 0 0)
(7.5377843e-10 0.0036170176 0 -0.00012970715 0 0)
(3.5866332e-09 0.0012052871 0 -1.4400651e-05 0 0)
(3.5018334e-09 -0.0012052882 0 -1.4400635e-05 0 0)
(4.4629962e-10 -0.0036170185 0 -0.00012970691 0 0)
(-2.1165876e-09 -0.0060309434 0 -0.00036078352 0 0)
(-2.5746632e-09 -0.0084447983 0 -0.00070774718 0 0)
(-1.7537773e-09 0.0084447999 0 -0.00070774806 0 0)
(-2.1006543e-09 0.0060309428 0 -0.00036078417 0 0)
(1.0404521e-09 0.0036170163 0 -0.00012970698 0 0)
(3.1947645e-09 0.0012052869 0 -1.4400387e-05 0 0)
(3.1997816e-09 -0.0012052884 0 -1.4400428e-05 0 0)
(8.1969518e-10 -0.003617017 0 -0.00012970684 0 0)
(-2.516617e-09 -0.006030943 0 -0.0003607837 0 0)
(-2.1066712e-09 -0.0084447988 0 -0.00070774745 0 0)
(-1.9424232e-09 0.0084448003 0 -0.00070774824 0 0)
(-1.3783943e-09 0.0060309424 0 -0.00036078423 0 0)
(6.109018e-10 0.0036170162 0 -0.00012970689 0 0)
(3.1048815e-09 0.0012052865 0 -1.4400153e-05 0 0)
(3.0683102e-09 -0.0012052875 0 -1.440018e-05 0 0)
(4.5512843e-10 -0.003617017 0 -0.0001297068 0 0)
(-1.714214e-09 -0.0060309426 0 -0.00036078385 0 0)
(-2.2434205e-09 -0.0084447993 0 -0.00070774771 0 0)
(-1.5659263e-09 0.0084448007 0 -0.0007077484 0 0)
(-1.9242462e-09 0.0060309421 0 -0.00036078427 0 0)
(9.2764751e-10 0.0036170151 0 -0.00012970677 0 0)
(2.8055463e-09 0.0012052864 0 -1.4399985e-05 0 0)
(2.8336653e-09 -0.0012052877 0 -1.4400043e-05 0 0)
(8.18392e-10 -0.0036170157 0 -0.00012970673 0 0)
(-2.2020454e-09 -0.0060309422 0 -0.00036078395 0 0)
(-1.8303798e-09 -0.0084447998 0 -0.00070774791 0 0)
(-1.7910312e-09 0.0084448011 0 -0.00070774853 0 0)
(-1.2312862e-09 0.0060309418 0 -0.0003607843 0 0)
(5.1359038e-10 0.0036170151 0 -0.00012970671 0 0)
(2.7875137e-09 0.001205286 0 -1.4399826e-05 0 0)
(2.7763316e-09 -0.001205287 0 -1.4399875e-05 0 0)
(4.4460611e-10 -0.0036170157 0 -0.0001297067 0 0)
(-1.4566155e-09 -0.0060309419 0 -0.00036078404 0 0)
(-2.0181894e-09 -0.0084448002 0 -0.00070774811 0 0)
(-1.4279745e-09 0.0084448015 0 -0.00070774867 0 0)
(-1.7931309e-09 0.0060309416 0 -0.00036078434 0 0)
(8.4861463e-10 0.0036170141 0 -0.00012970661 0 0)
(2.5233969e-09 0.001205286 0 -1.4399697e-05 0 0)
(2.5604199e-09 -0.0012052871 0 -1.4399759e-05 0 0)
(7.9629047e-10 -0.0036170146 0 -0.00012970663 0 0)
(-1.9855335e-09 -0.0060309415 0 -0.00036078412 0 0)
(-1.6269366e-09 -0.0084448007 0 -0.00070774828 0 0)
(-1.6664545e-09 0.0084448018 0 -0.00070774879 0 0)
(-1.1054218e-09 0.0060309413 0 -0.00036078437 0 0)
(4.4489974e-10 0.0036170141 0 -0.00012970657 0 0)
(2.536454e-09 0.0012052856 0 -1.4399571e-05 0 0)
(2.5338116e-09 -0.0012052865 0 -1.4399626e-05 0 0)
(4.1506017e-10 -0.0036170147 0 -0.00012970659 0 0)
(-1.2656158e-09 -0.0060309412 0 -0.00036078419 0 0)
(-1.8402726e-09 -0.008444801 0 -0.00070774845 0 0)
(-1.3062925e-09 0.0084448022 0 -0.00070774891 0 0)
(-1.6700492e-09 0.0060309411 0 -0.00036078441 0 0)
(7.9210761e-10 0.0036170132 0 -0.00012970649 0 0)
(2.2864652e-09 0.0012052855 0 -1.4399458e-05 0 0)
(2.320932e-09 -0.0012052866 0 -1.4399513e-05 0 0)
(7.5836217e-10 -0.0036170137 0 -0.00012970652 0 0)
(-1.815612e-09 -0.006030941 0 -0.00036078425 0 0)
(-1.4587896e-09 -0.0084448014 0 -0.0007077486 0 0)
(-1.5505922e-09 0.0084448025 0 -0.00070774902 0 0)
(-9.8123138e-10 0.0060309408 0 -0.00036078445 0 0)
(3.9549977e-10 0.0036170133 0 -0.00012970646 0 0)
(2.3150451e-09 0.0012052852 0 -1.439935e-05 0 0)
(2.3094345e-09 -0.0012052861 0 -1.4399401e-05 0 0)
(3.7308597e-10 -0.0036170137 0 -0.00012970649 0 0)
(-1.1084183e-09 -0.0060309407 0 -0.00036078431 0 0)
(-1.687602e-09 -0.0084448018 0 -0.00070774874 0 0)
(-1.1907205e-09 0.0084448029 0 -0.00070774913 0 0)
(-1.5460127e-09 0.0060309406 0 -0.0003607845 0 0)
(7.5081974e-10 0.0036170124 0 -0.0001297064 0 0)
(2.0722211e-09 0.0012052852 0 -1.4399247e-05 0 0)
(2.0966922e-09 -0.0012052861 0 -1.4399288e-05 0 0)
(7.1154315e-10 -0.0036170128 0 -0.00012970643 0 0)
(-1.6708598e-09 -0.0060309405 0 -0.00036078436 0 0)
(-1.3116751e-09 -0.0084448022 0 -0.00070774887 0 0)
(-1.438866e-09 0.0084448032 0 -0.00070774923 0 0)
(-8.5608332e-10 0.0060309404 0 -0.00036078454 0 0)
(3.5881699e-10 0.0036170125 0 -0.00012970638 0 0)
(2.1105903e-09 0.0012052849 0 -1.4399151e-05 0 0)
(2.0952506e-09 -0.0012052858 0 -1.439919e-05 0 0)
(3.2517059e-10 -0.0036170129 0 -0.00012970639 0 0)
(-9.7114129e-10 -0.0060309402 0 -0.00036078441 0 0)
(-1.5516567e-09 -0.0084448025 0 -0.000707749 0 0)
(-1.0792593e-09 0.0084448035 0 -0.00070774934 0 0)
(-1.4218016e-09 0.0060309402 0 -0.00036078459 0 0)
(7.1919521e-10 0.0036170117 0 -0.00012970633 0 0)
(1.8730288e-09 0.0012052848 0 -1.4399054e-05 0 0)
(1.8838772e-09 -0.0012052857 0 -1.4399079e-05 0 0)
(6.6151271e-10 -0.0036170121 0 -0.00012970633 0 0)
(-1.5419812e-09 -0.00603094 0 -0.00036078447 0 0)
(-1.1797309e-09 -0.0084448028 0 -0.00070774912 0 0)
(-1.3310221e-09 0.0084448037 0 -0.00070774944 0 0)
(-7.324748e-10 0.0060309399 0 -0.00036078464 0 0)
(3.2986922e-10 0.0036170118 0 -0.00012970632 0 0)
(1.9190491e-09 0.0012052846 0 -1.4398968e-05 0 0)
(1.8910023e-09 -0.0012052855 0 -1.4398992e-05 0 0)
(2.7611959e-10 -0.0036170121 0 -0.00012970631 0 0)
(-8.474701e-10 -0.0060309398 0 -0.00036078452 0 0)
(-1.4286302e-09 -0.0084448031 0 -0.00070774923 0 0)
(-9.7227916e-10 0.0084448041 0 -0.00070774954 0 0)
(-1.3005449e-09 0.0060309398 0 -0.00036078469 0 0)
(6.9303605e-10 0.0036170111 0 -0.00012970627 0 0)
(1.6864651e-09 0.0012052845 0 -1.4398878e-05 0 0)
(1.683035e-09 -0.0012052854 0 -1.4398886e-05 0 0)
(6.1214442e-10 -0.0036170114 0 -0.00012970625 0 0)
(-1.4245669e-09 -0.0060309396 0 -0.00036078456 0 0)
(-1.0600017e-09 -0.0084448034 0 -0.00070774934 0 0)
(-1.227828e-09 0.0084448043 0 -0.00070774963 0 0)
(-6.1357134e-10 0.0060309396 0 -0.00036078474 0 0)
(3.0503489e-10 0.0036170111 0 -0.00012970627 0 0)
(1.7392388e-09 0.0012052843 0 -1.43988e-05 0 0)
(1.6981982e-09 -0.0012052852 0 -1.439881e-05 0 0)
(2.2901194e-10 -0.0036170115 0 -0.00012970623 0 0)
(-7.3423316e-10 -0.0060309394 0 -0.00036078461 0 0)
(-1.316346e-09 -0.0084448036 0 -0.00070774944 0 0)
(-8.7055754e-10 0.0084448046 0 -0.00070774972 0 0)
(-1.1851176e-09 0.0060309394 0 -0.00036078479 0 0)
(6.6940074e-10 0.0036170105 0 -0.00012970623 0 0)
(1.5117676e-09 0.0012052842 0 -1.4398716e-05 0 0)
(1.4953819e-09 -0.0012052851 0 -1.4398708e-05 0 0)
(5.6576035e-10 -0.0036170108 0 -0.00012970618 0 0)
(-1.3162973e-09 -0.0060309392 0 -0.00036078466 0 0)
(-9.5059092e-10 -0.008444804 0 -0.00070774955 0 0)
(-1.1300418e-09 0.0084448047 0 -0.0007077498 0 0)
(-5.0178894e-10 0.0060309392 0 -0.00036078483 0 0)
(2.818977e-10 0.0036170105 0 -0.00012970622 0 0)
(1.5708097e-09 0.0012052841 0 -1.4398646e-05 0 0)
(1.5181812e-09 -0.0012052849 0 -1.4398642e-05 0 0)
(1.8557719e-10 -0.0036170109 0 -0.00012970616 0 0)
(-6.296555e-10 -0.006030939 0 -0.0003607847 0 0)
(-1.2132628e-09 -0.0084448041 0 -0.00070774964 0 0)
(-7.7470824e-10 0.008444805 0 -0.00070774989 0 0)
(-1.077447e-09 0.0060309391 0 -0.00036078488 0 0)
(6.464332e-10 0.0036170099 0 -0.00012970619 0 0)
(1.3486392e-09 0.001205284 0 -1.4398568e-05 0 0)
(1.3217181e-09 -0.0012052848 0 -1.4398548e-05 0 0)
(5.2354664e-10 -0.0036170102 0 -0.00012970612 0 0)
(-1.2158315e-09 -0.0060309388 0 -0.00036078475 0 0)
(-8.5008141e-10 -0.0084448044 0 -0.00070774973 0 0)
(-1.038163e-09 0.0084448052 0 -0.00070774997 0 0)
(-3.9855885e-10 0.0060309389 0 -0.00036078493 0 0)
(2.5902389e-10 0.00361701 0 -0.00012970619 0 0)
(1.4136041e-09 0.0012052838 0 -1.4398505e-05 0 0)
(1.3516795e-09 -0.0012052847 0 -1.4398491e-05 0 0)
(1.4659186e-10 -0.0036170103 0 -0.00012970611 0 0)
(-5.3266494e-10 -0.0060309387 0 -0.00036078479 0 0)
(-1.1181928e-09 -0.0084448046 0 -0.00070774982 0 0)
(-6.8507839e-10 0.0084448054 0 -0.00070775005 0 0)
(-9.7856588e-10 0.0060309387 0 -0.00036078497 0 0)
(6.2312766e-10 0.0036170095 0 -0.00012970616 0 0)
(1.1968777e-09 0.0012052838 0 -1.4398433e-05 0 0)
(1.1622713e-09 -0.0012052845 0 -1.4398403e-05 0 0)
(4.8591706e-10 -0.0036170097 0 -0.00012970607 0 0)
(-1.1223567e-09 -0.0060309385 0 -0.00036078483 0 0)
(-7.5737048e-10 -0.0084448049 0 -0.0007077499 0 0)
(-9.5243143e-10 0.0084448055 0 -0.00070775012 0 0)
(-3.0454567e-10 0.0060309386 0 -0.00036078502 0 0)
(2.3571146e-10 0.0036170096 0 -0.00012970616 0 0)
(1.2674701e-09 0.0012052837 0 -1.4398376e-05 0 0)
(1.198848e-09 -0.0012052845 0 -1.4398354e-05 0 0)
(1.1220486e-10 -0.0036170099 0 -0.00012970606 0 0)
(-4.4259725e-10 -0.0060309384 0 -0.00036078488 0 0)
(-1.030222e-09 -0.008444805 0 -0.00070774998 0 0)
(-6.0178416e-10 0.0084448058 0 -0.0007077502 0 0)
(-8.8886213e-10 0.0060309384 0 -0.00036078506 0 0)
(5.9908668e-10 0.0036170091 0 -0.00012970613 0 0)
(1.0562695e-09 0.0012052836 0 -1.4398311e-05 0 0)
(1.0168039e-09 -0.0012052843 0 -1.4398273e-05 0 0)
(4.5279889e-10 -0.0036170093 0 -0.00012970603 0 0)
(-1.0353797e-09 -0.0060309383 0 -0.00036078492 0 0)
(-6.7161936e-10 -0.0084448053 0 -0.00070775006 0 0)
(-8.7288527e-10 0.0084448059 0 -0.00070775026 0 0)
(-2.1985831e-10 0.0060309383 0 -0.0003607851 0 0)
(2.1175729e-10 0.0036170092 0 -0.00012970613 0 0)
(1.1322117e-09 0.0012052835 0 -1.439826e-05 0 0)
(1.0594169e-09 -0.0012052843 0 -1.4398231e-05 0 0)
(8.2185967e-11 -0.0036170094 0 -0.00012970603 0 0)
(-3.5904025e-10 -0.0060309381 0 -0.00036078496 0 0)
(-9.4866058e-10 -0.0084448054 0 -0.00070775013 0 0)
(-5.2476811e-10 0.0084448061 0 -0.00070775033 0 0)
(-8.0822424e-10 0.0060309382 0 -0.00036078514 0 0)
(5.7430666e-10 0.0036170087 0 -0.00012970611 0 0)
(9.2655516e-10 0.0012052835 0 -1.43982e-05 0 0)
(8.8476868e-10 -0.0012052841 0 -1.4398158e-05 0 0)
(4.2384277e-10 -0.0036170089 0 -0.000129706 0 0)
(-9.5460065e-10 -0.006030938 0 -0.000360785 0 0)
(-5.9219719e-10 -0.0084448056 0 -0.0007077502 0 0)
(-7.9941621e-10 0.0084448061 0 -0.00070775038 0 0)
(-1.4418021e-10 0.006030938 0 -0.00036078517 0 0)
(1.8726278e-10 0.0036170088 0 -0.0001297061 0 0)
(1.0075716e-09 0.0012052834 0 -1.4398154e-05 0 0)
(9.3283844e-10 -0.0012052841 0 -1.4398122e-05 0 0)
(5.6105746e-11 -0.0036170091 0 -0.000129706 0 0)
(-2.8172709e-10 -0.0060309379 0 -0.00036078503 0 0)
(-8.7299198e-10 -0.0084448057 0 -0.00070775026 0 0)
(-4.5385045e-10 0.0084448064 0 -0.00070775045 0 0)
(-7.3621553e-10 0.0060309379 0 -0.00036078521 0 0)
(5.4900873e-10 0.0036170084 0 -0.00012970608 0 0)
(8.0741571e-10 0.0012052834 0 -1.4398099e-05 0 0)
(7.6542964e-10 -0.001205284 0 -1.4398056e-05 0 0)
(3.9856992e-10 -0.0036170086 0 -0.00012970598 0 0)
(-8.7982115e-10 -0.0060309378 0 -0.00036078507 0 0)
(-5.1862782e-10 -0.0084448059 0 -0.00070775034 0 0)
(-7.3181646e-10 0.0084448064 0 -0.0007077505 0 0)
(-7.6956411e-11 0.0060309378 0 -0.00036078524 0 0)
(1.624902e-10 0.0036170085 0 -0.00012970608 0 0)
(8.932246e-10 0.0012052833 0 -1.4398059e-05 0 0)
(8.1839692e-10 -0.0012052839 0 -1.4398025e-05 0 0)
(3.3455652e-11 -0.0036170087 0 -0.00012970598 0 0)
(-2.1045974e-10 -0.0060309376 0 -0.00036078511 0 0)
(-8.0282283e-10 -0.008444806 0 -0.00070775039 0 0)
(-3.8877399e-10 0.0084448066 0 -0.00070775057 0 0)
(-6.7223699e-10 0.0060309377 0 -0.00036078528 0 0)
(5.2351735e-10 0.0036170081 0 -0.00012970606 0 0)
(6.9846909e-10 0.0012052833 0 -1.4398009e-05 0 0)
(6.5795216e-10 -0.0012052838 0 -1.4397965e-05 0 0)
(3.7646721e-10 -0.0036170083 0 -0.00012970596 0 0)
(-8.1088047e-10 -0.0060309376 0 -0.00036078514 0 0)
(-4.5054077e-10 -0.0084448062 0 -0.00070775046 0 0)
(-6.6981447e-10 0.0084448066 0 -0.00070775061 0 0)
(-1.7520501e-11 0.0060309376 0 -0.0003607853 0 0)
(1.3776263e-10 0.0036170082 0 -0.00012970606 0 0)
(7.8877876e-10 0.0012052832 0 -1.4397973e-05 0 0)
(7.1528953e-10 -0.0012052838 0 -1.4397939e-05 0 0)
(1.3724581e-11 -0.0036170085 0 -0.00012970596 0 0)
(-1.4505673e-10 -0.0060309374 0 -0.00036078518 0 0)
(-7.3784062e-10 -0.0084448062 0 -0.00070775051 0 0)
(-3.2923354e-10 0.0084448068 0 -0.00070775067 0 0)
(-6.1561397e-10 0.0060309375 0 -0.00036078533 0 0)