/*--------------------------------*- C++ -*----------------------------------*\
| =========                 |                                                 |
| \\      /  F ield         | OpenFOAM: The Open Source CFD Toolbox           |
|  \\    /   O peration     | Version:  5.x                                   |
|   \\  /    A nd           | Web:      www.OpenFOAM.org                      |
|    \\/     M anipulation  |                                                 |
\*---------------------------------------------------------------------------*/
FoamFile
{
    version     2.0;
    format      ascii;
    class       volSymmTensorField;
    location    "10";
    object      sigma_0;
}
// * * * * * * * * * * * * * * * * * * * * * * * * * * * * * * * * * * * * * //

dimensions      [0 2 -2 0 0 0 0];

internalField   nonuniform List<symmTensor> 
1920
(
(0.0033071134 0.016839416 0 -0.010248319 0 0)
(-0.00049154163 0.0069277033 0 0.0017546341 0 0)
(-0.0021652838 0.0040969055 0 0.0017061937 0 0)
(-0.0017920247 0.0012770272 0 0.0017731831 0 0)
(-0.0017919886 -0.0012770364 0 0.0017731466 0 0)
(-0.002165289 -0.0040968629 0 0.0017062002 0 0)
(-0.00049154906 -0.0069277046 0 0.0017546417 0 0)
(0.003307112 -0.016839416 0 -0.010248315 0 0)
(0.0055706612 0.011848269 0 -0.0059158237 0 0)
(0.00067113378 0.0024844812 0 0.00052473954 0 0)
(-0.0034085179 0.00098598075 0 0.0029116945 0 0)
(-0.0034852637 0.00050018812 0 0.0032015303 0 0)
(-0.0034852402 -0.00050018848 0 0.0032015037 0 0)
(-0.003408534 -0.00098590054 0 0.0029117135 0 0)
(0.00067114038 -0.0024844696 0 0.00052472792 0 0)
(0.0055706611 -0.011848271 0 -0.005915824 0 0)
(0.0051339488 0.010229638 0 -0.0067765683 0 0)
(0.0012898015 0.00157886 0 -0.00071708595 0 0)
(-0.00291965 0.00043179687 0 0.0026168139 0 0)
(-0.0037485805 0.00014889565 0 0.0035664206 0 0)
(-0.003748585 -0.00014889914 0 0.0035664285 0 0)
(-0.0029196021 -0.00043187528 0 0.0026167622 0 0)
(0.0012898096 -0.0015788709 0 -0.00071709172 0 0)
(0.0051339512 -0.010229639 0 -0.0067765732 0 0)
(0.0040178209 0.0094399609 0 -0.0056254976 0 0)
(0.0014597169 0.0020638378 0 -0.0012431034 0 0)
(-0.0022297297 0.00044175232 0 0.0020881461 0 0)
(-0.0034672531 5.748998e-05 0 0.0033994214 0 0)
(-0.0034671769 -5.7504548e-05 0 0.0033993467 0 0)
(-0.0022297683 -0.00044168591 0 0.0020881863 0 0)
(0.0014597227 -0.002063825 0 -0.0012431089 0 0)
(0.0040178267 -0.0094399609 0 -0.0056255033 0 0)
(0.0030948003 0.009086782 0 -0.0043303317 0 0)
(0.001360257 0.0027742853 0 -0.0013236626 0 0)
(-0.00159385 0.00085383857 0 0.0014988715 0 0)
(-0.0029502842 0.00015390982 0 0.0029098601 0 0)
(-0.0029504751 -0.00015390232 0 0.002910052 0 0)
(-0.0015942082 -0.00085363564 0 0.0014992253 0 0)
(0.0013602493 -0.0027742773 0 -0.0013236544 0 0)
(0.0030948029 -0.0090867746 0 -0.0043303343 0 0)
(0.0023704147 0.0088372097 0 -0.0033574714 0 0)
(0.0011634201 0.003533195 0 -0.0012376809 0 0)
(-0.0011530139 0.0013034217 0 0.0010731676 0 0)
(-0.002185069 0.00032641256 0 0.0021620197 0 0)
(-0.0021850076 -0.0003264448 0 0.002161956 0 0)
(-0.0011526555 -0.0013037313 0 0.0010728109 0 0)
(0.0011634558 -0.0035331895 0 -0.0012377173 0 0)
(0.0023704272 -0.0088372053 0 -0.0033574833 0 0)
(0.0016313821 0.0085816055 0 -0.0024857933 0 0)
(0.00089991314 0.0042096224 0 -0.001059385 0 0)
(-0.00076127258 0.0018020469 0 0.00068691044 0 0)
(-0.0016663749 0.00048891863 0 0.0016552327 0 0)
(-0.0016663428 -0.00048893499 0 0.0016552014 0 0)
(-0.00076115661 -0.0018021301 0 0.00068679314 0 0)
(0.00089993509 -0.0042096181 0 -0.0010594062 0 0)
(0.0016313843 -0.008581591 0 -0.0024857948 0 0)
(0.0011355052 0.0084146361 0 -0.0019218285 0 0)
(0.00070545512 0.0046075654 0 -0.00091950915 0 0)
(-0.00048897844 0.0022407241 0 0.00041186843 0 0)
(-0.0012379701 0.00063754318 0 0.001233571 0 0)
(-0.0012380325 -0.00063752826 0 0.0012336324 0 0)
(-0.00048897119 -0.0022407042 0 0.00041186127 0 0)
(0.0007054591 -0.0046075816 0 -0.00091951503 0 0)
(0.001135502 -0.0084146208 0 -0.0019218234 0 0)
(0.00077898383 0.0083008743 0 -0.0015240858 0 0)
(0.00050681244 0.0049895358 0 -0.00076509769 0 0)
(-0.00032127686 0.0025616613 0 0.00023625141 0 0)
(-0.00092172724 0.0007548513 0 0.00091887781 0 0)
(-0.00092149457 -0.00075494507 0 0.00091864819 0 0)
(-0.0003212268 -0.0025617187 0 0.00023620187 0 0)
(0.00050684541 -0.0049894945 0 -0.00076512973 0 0)
(0.00077900295 -0.0083008588 0 -0.0015241039 0 0)
(0.00052333661 0.0082210096 0 -0.0012430854 0 0)
(0.00036688828 0.0052286693 0 -0.0006550662 0 0)
(-0.0002038249 0.0028222362 0 0.00010920429 0 0)
(-0.00062472673 0.00087180468 0 0.00062106197 0 0)
(-0.0006249515 -0.00087172341 0 0.00062128571 0 0)
(-0.00020384595 -0.0028221685 0 0.00010922648 0 0)
(0.00036688299 -0.005228685 0 -0.00065506148 0 0)
(0.00052332908 -0.0082209865 0 -0.0012430753 0 0)
(0.00034408632 0.0081666258 0 -0.0010487192 0 0)
(0.00025990429 0.0054003461 0 -0.00056901471 0 0)
(-0.00012687743 0.0030165725 0 2.3757249e-05 0 0)
(-0.00043328557 0.00095097981 0 0.00042762848 0 0)
(-0.00043320419 -0.00095102264 0 0.00042754629 0 0)
(-0.00012684109 -0.0030166386 0 2.3719624e-05 0 0)
(0.00025992997 -0.0054003021 0 -0.00056903857 0 0)
(0.00034410606 -0.0081666068 0 -0.0010487367 0 0)
(0.00022203437 0.0081305626 0 -0.00091782321 0 0)
(0.00017890022 0.005523122 0 -0.00050230707 0 0)
(-7.7613847e-05 0.003156388 0 -3.2198872e-05 0 0)
(-0.00028743503 0.0010139951 0 0.00027965697 0 0)
(-0.00028743366 -0.0010140028 0 0.0002796557 0 0)
(-7.7634786e-05 -0.0031563284 0 -3.2176802e-05 0 0)
(0.00017888746 -0.005523133 0 -0.00050229451 0 0)
(0.00022202439 -0.0081305358 0 -0.00091781022 0 0)
(0.0001409403 0.0081071641 0 -0.00083160881 0 0)
(0.00012037706 0.0056072019 0 -0.00045323914 0 0)
(-4.6514186e-05 0.003254827 0 -6.8295641e-05 0 0)
(-0.0001878962 0.0010584515 0 0.00017831783 0 0)
(-0.00018800845 -0.0010584228 0 0.00017842911 0 0)
(-4.6498255e-05 -0.0032548817 0 -6.8312893e-05 0 0)
(0.00012039213 -0.0056071646 0 -0.00045325232 0 0)
(0.00014095449 -0.0081071429 0 -0.0008316199 0 0)
(8.7875832e-05 0.0080922215 0 -0.00077561575 0 0)
(7.9421133e-05 0.0056631992 0 -0.00041840558 0 0)
(-2.7173513e-05 0.003322776 0 -9.1216652e-05 0 0)
(-0.00012180619 0.0010890176 0 0.00011084293 0 0)
(-0.00012163506 -0.0010890999 0 0.00011067181 0 0)
(-2.7192327e-05 -0.0033227363 0 -9.1197233e-05 0 0)
(7.9404528e-05 -0.0056632055 0 -0.00041838853 0 0)
(8.7866834e-05 -0.0080921956 0 -0.00077560352 0 0)
(5.3702907e-05 0.0080828492 0 -0.00073980751 0 0)
(5.1429659e-05 0.0056997878 0 -0.00039430393 0 0)
(-1.5410277e-05 0.0033686879 0 -0.00010545787 0 0)
(-7.8404988e-05 0.0011096541 0 6.6442429e-05 0 0)
(-7.8528228e-05 -0.0011096215 0 6.6565168e-05 0 0)
(-1.5408945e-05 -0.0033687274 0 -0.00010546031 0 0)
(5.1434465e-05 -0.005699762 0 -0.00039430714 0 0)
(5.371026e-05 -0.0080828283 0 -0.00073981145 0 0)
(3.2080973e-05 0.0080771001 0 -0.00071730405 0 0)
(3.2678563e-05 0.0057232577 0 -0.0003779826 0 0)
(-8.3695926e-06 0.0033992639 0 -0.00011416289 0 0)
(-4.8655674e-05 0.0011240859 0 3.5994465e-05 0 0)
(-4.8030171e-05 -0.0011243842 0 3.5365924e-05 0 0)
(-8.3849623e-06 -0.0033992447 0 -0.00011414751 0 0)
(3.2662779e-05 -0.0057232598 0 -0.00037796604 0 0)
(3.207329e-05 -0.0080770773 0 -0.00071729318 0 0)
(1.8620676e-05 0.0080736553 0 -0.00070339435 0 0)
(2.0326633e-05 0.0057380961 0 -0.00036712067 0 0)
(-4.2914424e-06 0.0034191756 0 -0.00011932843 0 0)
(-2.9530992e-05 0.0011336045 0 1.6402649e-05 0 0)
(-3.0429118e-05 -0.0011332165 0 1.7304728e-05 0 0)
(-4.2973599e-06 -0.0034192013 0 -0.0001193234 0 0)
(2.0324422e-05 -0.0057380813 0 -0.00036711732 0 0)
(1.862254e-05 -0.0080736363 0 -0.00070339295 0 0)
(1.0436799e-05 0.0080716617 0 -0.00069500136 0 0)
(1.2364094e-05 0.0057472617 0 -0.00036005266 0 0)
(-1.9849922e-06 0.0034319911 0 -0.00012232879 0 0)
(-1.8131789e-05 0.0011394426 0 4.70207e-06 0 0)
(-1.7515565e-05 -0.0011397495 0 4.0819788e-06 0 0)
(-1.9963683e-06 -0.0034319872 0 -0.00012231777 0 0)
(1.2351714e-05 -0.0057472612 0 -0.00036003952 0 0)
(1.0430534e-05 -0.0080716427 0 -0.00069499215 0 0)
(5.5556386e-06 0.0080705529 0 -0.00069004011 0 0)
(7.3008735e-06 0.0057528457 0 -0.00035551577 0 0)
(-7.5053464e-07 0.0034400195 0 -0.0001239934 0 0)
(-1.0149085e-05 0.0011435857 0 -3.4769566e-06 0 0)
(-1.0616713e-05 -0.0011433833 0 -3.0071296e-06 0 0)
(-7.5812208e-07 -0.0034400346 0 -0.00012398658 0 0)
(7.2954229e-06 -0.0057528387 0 -0.00035550957 0 0)
(5.5545004e-06 -0.0080705365 0 -0.00069003611 0 0)
(2.8250088e-06 0.0080699906 0 -0.00068729493 0 0)
(4.1723472e-06 0.0057561337 0 -0.00035268677 0 0)
(-1.2383866e-07 0.003444992 0 -0.00012488087 0 0)
(-5.8020089e-06 0.001145928 0 -7.9424932e-06 0 0)
(-5.3286724e-06 -0.001146178 0 -8.4192622e-06 0 0)
(-1.3167213e-07 -0.0034449966 0 -0.00012487368 0 0)
(4.1639368e-06 -0.0057561316 0 -0.00035267774 0 0)
(2.8204909e-06 -0.0080699749 0 -0.00068728786 0 0)
(1.1943057e-06 0.0080697071 0 -0.0006856776 0 0)
(2.2620345e-06 0.005758038 0 -0.00035094293 0 0)
(1.5637886e-07 0.0034479642 0 -0.00012531281 0 0)
(-2.7388088e-06 0.0011475994 0 -1.1080056e-05 0 0)
(-3.2409723e-06 -0.0011473624 0 -1.0574662e-05 0 0)
(1.4972703e-07 -0.0034479727 0 -0.00012530683 0 0)
(2.2557644e-06 -0.0057580351 0 -0.0003509362 0 0)
(1.191965e-06 -0.0080696931 0 -0.00068567281 0 0)
(3.6755894e-07 0.0080696042 0 -0.00068487519 0 0)
(1.1467822e-06 0.0057590785 0 -0.00034991429 0 0)
(2.5532097e-07 0.0034497111 0 -0.00012549762 0 0)
(-1.5393912e-06 0.0011483054 0 -1.2318794e-05 0 0)
(-1.2954523e-06 -0.0011484487 0 -1.2565121e-05 0 0)
(2.4982299e-07 -0.0034497188 0 -0.00012549281 0 0)
(1.1414687e-06 -0.0057590757 0 -0.0003499085 0 0)
(3.6463485e-07 -0.0080695912 0 -0.00068487011 0 0)
(-4.3118131e-08 0.0080695928 0 -0.00068449062 0 0)
(5.0310885e-07 0.0057596283 0 -0.00034931428 0 0)
(2.6347177e-07 0.003450686 0 -0.00012555067 0 0)
(-4.3565077e-07 0.0011489493 0 -1.3448031e-05 0 0)
(-4.479015e-07 -0.001148958 0 -1.3436053e-05 0 0)
(2.5833471e-07 -0.003450691 0 -0.00012554615 0 0)
(4.9725158e-07 -0.0057596269 0 -0.00034930811 0 0)
(-4.6236591e-08 -0.0080695807 0 -0.00068448549 0 0)
(-2.1794239e-07 0.0080696234 0 -0.0006843387 0 0)
(1.6329423e-07 0.0057598841 0 -0.00034899187 0 0)
(2.3161125e-07 0.0034512086 0 -0.0001255411 0 0)
(-5.9423949e-08 0.0011491962 0 -1.3835871e-05 0 0)
(-9.975235e-08 -0.001149186 0 -1.3795714e-05 0 0)
(2.2719442e-07 -0.0034512161 0 -0.00012553732 0 0)
(1.5981265e-07 -0.0057598813 0 -0.00034898804 0 0)
(-2.2045906e-07 -0.0080696122 0 -0.00068433435 0 0)
(-2.6256676e-07 0.0080696678 0 -0.00068431333 0 0)
(-5.7206166e-09 0.0057599879 0 -0.00034882834 0 0)
(1.8868379e-07 0.0034514602 0 -0.00012550647 0 0)
(1.5856316e-07 0.0011493488 0 -1.4060048e-05 0 0)
(1.4602554e-07 -0.0011493534 0 -1.404782e-05 0 0)
(1.8481853e-07 -0.0034514641 0 -0.00012550311 0 0)
(-1.0761153e-08 -0.0057599865 0 -0.00034882303 0 0)
(-2.6520679e-07 -0.0080696572 0 -0.00068430905 0 0)
(-2.4810829e-07 0.0080697143 0 -0.00068434297 0 0)
(-9.1812577e-08 0.0057600172 0 -0.00034874088 0 0)
(1.4917908e-07 0.0034515625 0 -0.000125469 0 0)
(2.0824834e-07 0.0011494016 0 -1.4111933e-05 0 0)
(1.8898123e-07 -0.0011493976 0 -1.4092831e-05 0 0)
(1.450328e-07 -0.003451568 0 -0.00012546534 0 0)
(-9.5498591e-08 -0.0057600154 0 -0.00034873693 0 0)
(-2.50524e-07 -0.0080697044 0 -0.00068433901 0 0)
(-2.1208186e-07 0.008069751 0 -0.0006843901 0 0)
(-1.1150142e-07 0.0057600017 0 -0.00034871838 0 0)
(1.0999719e-07 0.0034515967 0 -0.00012542823 0 0)
(2.1073026e-07 0.0011494174 0 -1.4115001e-05 0 0)
(2.1111303e-07 -0.0011494273 0 -1.4115678e-05 0 0)
(1.0611265e-07 -0.0034516008 0 -0.0001254248 0 0)
(-1.1603671e-07 -0.0057599999 0 -0.00034871346 0 0)
(-2.1414537e-07 -0.0080697419 0 -0.00068438667 0 0)
(-1.6727266e-07 0.008069785 0 -0.00068444307 0 0)
(-1.1059241e-07 0.0057599697 0 -0.00034871631 0 0)
(7.8971557e-08 0.0034515831 0 -0.0001253947 0 0)
(1.9333884e-07 0.0011494234 0 -1.4097399e-05 0 0)
(1.9236855e-07 -0.0011494303 0 -1.4096719e-05 0 0)
(7.5544217e-08 -0.0034515877 0 -0.00012539162 0 0)
(-1.141326e-07 -0.0057599683 0 -0.0003487125 0 0)
(-1.6913364e-07 -0.0080697769 0 -0.00068443992 0 0)
(-1.2966842e-07 0.0080698086 0 -0.00068448662 0 0)
(-9.3011029e-08 0.0057599385 0 -0.0003487298 0 0)
(5.517966e-08 0.003451555 0 -0.00012536813 0 0)
(1.6453119e-07 0.0011494142 0 -1.4067976e-05 0 0)
(1.6309048e-07 -0.0011494223 0 -1.4066747e-05 0 0)
(5.1797487e-08 -0.0034515586 0 -0.0001253651 0 0)
(-9.6976606e-08 -0.0057599379 0 -0.00034872556 0 0)
(-1.3168308e-07 -0.0080698005 0 -0.00068448343 0 0)
(-9.7161237e-08 0.0080698282 0 -0.00068452327 0 0)
(-7.6787539e-08 0.0057599096 0 -0.00034874294 0 0)
(3.8130165e-08 0.0034515217 0 -0.00012534853 0 0)
(1.2864347e-07 0.0011494023 0 -1.4031318e-05 0 0)
(1.2732549e-07 -0.0011494088 0 -1.403024e-05 0 0)
(3.5138619e-08 -0.003451526 0 -0.00012534586 0 0)
(-8.0114532e-08 -0.0057599084 0 -0.00034873943 0 0)
(-9.8904028e-08 -0.0080698213 0 -0.00068452045 0 0)
(-7.0995591e-08 0.0080698421 0 -0.00068455239 0 0)
(-5.9411423e-08 0.0057598861 0 -0.00034875783 0 0)
(2.6375166e-08 0.0034514901 0 -0.00012533468 0 0)
(1.0309686e-07 0.0011493917 0 -1.4005133e-05 0 0)
(1.005247e-07 -0.0011493973 0 -1.4002734e-05 0 0)
(2.3127344e-08 -0.003451493 0 -0.00012533174 0 0)
(-6.3012299e-08 -0.0057598852 0 -0.00034875398 0 0)
(-7.2758955e-08 -0.0080698353 0 -0.00068454963 0 0)
(-5.158415e-08 0.0080698533 0 -0.00068457376 0 0)
(-4.6083432e-08 0.0057598667 0 -0.00034876932 0 0)
(1.8688873e-08 0.0034514674 0 -0.00012532515 0 0)
(7.4297143e-08 0.0011493783 0 -1.3975696e-05 0 0)
(7.2942478e-08 -0.0011493836 0 -1.3974531e-05 0 0)
(1.5552068e-08 -0.0034514706 0 -0.00012532227 0 0)
(-4.9216203e-08 -0.005759866 0 -0.00034876603 0 0)
(-5.3198547e-08 -0.0080698476 0 -0.00068457124 0 0)
(-3.6960118e-08 0.0080698605 0 -0.00068458984 0 0)
(-3.4255309e-08 0.0057598521 0 -0.00034877979 0 0)
(1.4043489e-08 0.0034514468 0 -0.000125319 0 0)
(5.7203319e-08 0.001149371 0 -1.3958195e-05 0 0)
(5.5796489e-08 -0.0011493755 0 -1.3956938e-05 0 0)
(1.123772e-08 -0.0034514494 0 -0.00012531644 0 0)
(-3.7383811e-08 -0.0057598515 0 -0.00034877644 0 0)
(-3.8558248e-08 -0.008069855 0 -0.00068458741 0 0)
(-2.6588962e-08 0.0080698668 0 -0.00068460103 0 0)
(-2.6193251e-08 0.0057598411 0 -0.00034878704 0 0)
(9.8329361e-09 0.0034514321 0 -0.00012531385 0 0)
(4.0575143e-08 0.0011493623 0 -1.39412e-05 0 0)
(3.9371021e-08 -0.0011493659 0 -1.3940126e-05 0 0)
(7.0790689e-09 -0.0034514347 0 -0.0001253113 0 0)
(-2.8977463e-08 -0.0057598407 0 -0.0003487841 0 0)
(-2.8041683e-08 -0.0080698621 0 -0.00068459882 0 0)
(-1.9387737e-08 0.0080698706 0 -0.00068460905 0 0)
(-1.9276162e-08 0.0057598327 0 -0.00034879313 0 0)
(7.2662409e-09 0.0034514194 0 -0.00012531051 0 0)
(3.1482931e-08 0.0011493587 0 -1.3931891e-05 0 0)
(3.0612067e-08 -0.0011493623 0 -1.3931145e-05 0 0)
(4.9412731e-09 -0.0034514216 0 -0.00012530835 0 0)
(-2.1931179e-08 -0.0057598324 0 -0.00034879028 0 0)
(-2.0814931e-08 -0.0080698662 0 -0.00068460694 0 0)
(-1.412587e-08 0.0080698741 0 -0.00068461461 0 0)
(-1.4895932e-08 0.0057598267 0 -0.0003487972 0 0)
(5.4812916e-09 0.0034514108 0 -0.00012530817 0 0)
(2.3597897e-08 0.001149354 0 -1.3923831e-05 0 0)
(2.2569293e-08 -0.0011493569 0 -1.3922895e-05 0 0)
(3.2498358e-09 -0.003451413 0 -0.0001253061 0 0)
(-1.7281527e-08 -0.0057598265 0 -0.00034879467 0 0)
(-1.541424e-08 -0.0080698703 0 -0.0006846127 0 0)
(-1.0949718e-08 0.0080698764 0 -0.00068461834 0 0)
(-1.1288884e-08 0.0057598221 0 -0.00034880026 0 0)
(4.1773763e-09 0.0034514033 0 -0.00012530647 0 0)
(1.8916962e-08 0.001149352 0 -1.3919031e-05 0 0)
(1.8345551e-08 -0.0011493551 0 -1.3918567e-05 0 0)
(2.3012558e-09 -0.0034514053 0 -0.00012530472 0 0)
(-1.3482055e-08 -0.005759822 0 -0.00034879791 0 0)
(-1.2189734e-08 -0.0080698729 0 -0.00068461653 0 0)
(-8.3536613e-09 0.0080698785 0 -0.00068462101 0 0)
(-9.1573989e-09 0.0057598188 0 -0.00034880231 0 0)
(3.459383e-09 0.0034513981 0 -0.0001253054 0 0)
(1.5262089e-08 0.0011493496 0 -1.3915298e-05 0 0)
(1.4552907e-08 -0.0011493522 0 -1.3914665e-05 0 0)
(1.7171815e-09 -0.0034514001 0 -0.00012530379 0 0)
(-1.1107818e-08 -0.0057598188 0 -0.00034880023 0 0)
(-9.4550029e-09 -0.0080698755 0 -0.00068461939 0 0)
(-7.1049042e-09 0.0080698802 0 -0.00068462269 0 0)
(-7.3924931e-09 0.0057598163 0 -0.00034880369 0 0)
(2.8117443e-09 0.0034513935 0 -0.00012530453 0 0)
(1.2974027e-08 0.0011493483 0 -1.3912942e-05 0 0)
(1.2592116e-08 -0.0011493512 0 -1.3912656e-05 0 0)
(1.3642877e-09 -0.0034513952 0 -0.00012530319 0 0)
(-9.1331936e-09 -0.0057598164 0 -0.00034880182 0 0)
(-8.1424206e-09 -0.0080698774 0 -0.00068462119 0 0)
(-5.8220958e-09 0.0080698816 0 -0.00068462396 0 0)
(-6.4864967e-09 0.0057598145 0 -0.00034880461 0 0)
(2.5226001e-09 0.0034513904 0 -0.00012530401 0 0)
(1.1214135e-08 0.0011493467 0 -1.3911146e-05 0 0)
(1.0760697e-08 -0.001149349 0 -1.3910758e-05 0 0)
(1.2200132e-09 -0.0034513922 0 -0.00012530283 0 0)
(-8.0105357e-09 -0.0057598146 0 -0.00034880298 0 0)
(-6.7246732e-09 -0.0080698793 0 -0.00068462263 0 0)
(-5.3985661e-09 0.008069883 0 -0.00068462476 0 0)
(-5.6170389e-09 0.005759813 0 -0.00034880518 0 0)
(2.1772034e-09 0.0034513872 0 -0.00012530352 0 0)
(1.0111777e-08 0.0011493458 0 -1.3910003e-05 0 0)
(9.8401102e-09 -0.0011493484 0 -1.3909816e-05 0 0)
(1.1200746e-09 -0.0034513886 0 -0.00012530256 0 0)
(-6.9419935e-09 -0.0057598131 0 -0.00034880376 0 0)
(-6.2353865e-09 -0.0080698808 0 -0.00068462354 0 0)
(-4.7090766e-09 0.0080698842 0 -0.0006846254 0 0)
(-5.2960941e-09 0.0057598118 0 -0.00034880557 0 0)
(2.0426102e-09 0.0034513854 0 -0.00012530324 0 0)
(9.2235394e-09 0.0011493446 0 -1.3909097e-05 0 0)
(8.9310229e-09 -0.0011493466 0 -1.3908861e-05 0 0)
(1.1185261e-09 -0.0034513868 0 -0.00012530241 0 0)
(-6.439125e-09 -0.0057598119 0 -0.00034880434 0 0)
(-5.4235596e-09 -0.0080698823 0 -0.00068462433 0 0)
(-4.6192426e-09 0.0080698854 0 -0.00068462583 0 0)
(-4.8190041e-09 0.0057598109 0 -0.0003488058 0 0)
(1.8266793e-09 0.0034513828 0 -0.00012530292 0 0)
(8.6562438e-09 0.0011493439 0 -1.3908502e-05 0 0)
(8.4652247e-09 -0.0011493462 0 -1.3908386e-05 0 0)
(1.0990183e-09 -0.003451384 0 -0.00012530227 0 0)
(-5.7876334e-09 -0.0057598109 0 -0.00034880475 0 0)
(-5.2730515e-09 -0.0080698836 0 -0.00068462486 0 0)
(-4.1806393e-09 0.0080698864 0 -0.0006846262 0 0)
(-4.7466806e-09 0.00575981 0 -0.00034880595 0 0)
(1.7492097e-09 0.0034513815 0 -0.00012530273 0 0)
(8.1613565e-09 0.0011493429 0 -1.3907998e-05 0 0)
(7.9783633e-09 -0.0011493446 0 -1.3907864e-05 0 0)
(1.1292955e-09 -0.0034513827 0 -0.0001253022 0 0)
(-5.5712592e-09 -0.0057598101 0 -0.00034880507 0 0)
(-4.7283988e-09 -0.0080698849 0 -0.00068462536 0 0)
(-4.2188565e-09 0.0080698876 0 -0.00068462649 0 0)
(-4.4287983e-09 0.0057598092 0 -0.00034880605 0 0)
(1.5930267e-09 0.0034513793 0 -0.00012530249 0 0)
(7.8216652e-09 0.0011493423 0 -1.3907639e-05 0 0)
(7.6978452e-09 -0.0011493443 0 -1.3907581e-05 0 0)
(1.1221689e-09 -0.0034513803 0 -0.0001253021 0 0)
(-5.1110939e-09 -0.0057598093 0 -0.00034880531 0 0)
(-4.7152471e-09 -0.0080698861 0 -0.00068462574 0 0)
(-3.8813555e-09 0.0080698886 0 -0.00068462675 0 0)
(-4.4484703e-09 0.0057598085 0 -0.00034880612 0 0)
(1.5417822e-09 0.0034513783 0 -0.00012530235 0 0)
(7.4991656e-09 0.0011493414 0 -1.3907311e-05 0 0)
(7.3947886e-09 -0.0011493429 0 -1.390725e-05 0 0)
(1.1489241e-09 -0.0034513793 0 -0.00012530204 0 0)
(-5.0228999e-09 -0.0057598085 0 -0.00034880551 0 0)
(-4.2891123e-09 -0.0080698873 0 -0.0006846261 0 0)
(-3.9637785e-09 0.0080698897 0 -0.00068462698 0 0)
(-4.1896419e-09 0.0057598079 0 -0.00034880618 0 0)
(1.4194583e-09 0.0034513763 0 -0.00012530217 0 0)
(7.2527695e-09 0.0011493409 0 -1.390705e-05 0 0)
(7.181343e-09 -0.0011493425 0 -1.3907037e-05 0 0)
(1.1339077e-09 -0.0034513771 0 -0.00012530195 0 0)
(-4.6553048e-09 -0.0057598078 0 -0.00034880567 0 0)
(-4.3314933e-09 -0.0080698884 0 -0.0006846264 0 0)
(-3.6658496e-09 0.0080698906 0 -0.00068462719 0 0)
(-4.2347001e-09 0.0057598072 0 -0.00034880623 0 0)
(1.384297e-09 0.0034513754 0 -0.00012530205 0 0)
(7.0060549e-09 0.00114934 0 -1.39068e-05 0 0)
(6.9557529e-09 -0.0011493414 0 -1.3906789e-05 0 0)
(1.1488071e-09 -0.0034513763 0 -0.00012530189 0 0)
(-4.6242672e-09 -0.0057598072 0 -0.00034880582 0 0)
(-3.9619001e-09 -0.0080698895 0 -0.00068462669 0 0)
(-3.7600527e-09 0.0080698917 0 -0.0006846274 0 0)
(-3.9946725e-09 0.0057598066 0 -0.00034880629 0 0)
(1.2853357e-09 0.0034513736 0 -0.0001253019 0 0)
(6.7979512e-09 0.0011493395 0 -1.3906581e-05 0 0)
(6.7620075e-09 -0.001149341 0 -1.3906598e-05 0 0)
(1.1230007e-09 -0.0034513742 0 -0.0001253018 0 0)
(-4.3054743e-09 -0.0057598065 0 -0.00034880595 0 0)
(-4.027582e-09 -0.0080698906 0 -0.00068462696 0 0)
(-3.4780665e-09 0.0080698925 0 -0.0006846276 0 0)
(-4.0400799e-09 0.005759806 0 -0.00034880634 0 0)
(1.2617677e-09 0.0034513728 0 -0.00012530181 0 0)
(6.5868525e-09 0.0011493387 0 -1.3906369e-05 0 0)
(6.5700401e-09 -0.00114934 0 -1.3906388e-05 0 0)
(1.1264738e-09 -0.0034513734 0 -0.00012530175 0 0)
(-4.3010439e-09 -0.0057598059 0 -0.00034880607 0 0)
(-3.6893312e-09 -0.0080698915 0 -0.00068462721 0 0)
(-3.5726147e-09 0.0080698936 0 -0.0006846278 0 0)
(-3.8049359e-09 0.0057598055 0 -0.0003488064 0 0)
(1.1805029e-09 0.003451371 0 -0.00012530168 0 0)
(6.3957685e-09 0.0011493382 0 -1.390617e-05 0 0)
(6.3796527e-09 -0.0011493396 0 -1.3906202e-05 0 0)
(1.0921057e-09 -0.0034513716 0 -0.00012530165 0 0)
(-4.0116771e-09 -0.0057598053 0 -0.00034880618 0 0)
(-3.7658592e-09 -0.0080698926 0 -0.00068462745 0 0)
(-3.2983076e-09 0.0080698944 0 -0.00068462798 0 0)
(-3.8433607e-09 0.0057598049 0 -0.00034880647 0 0)
(1.1653424e-09 0.0034513702 0 -0.00012530161 0 0)
(6.2040546e-09 0.0011493375 0 -1.3905979e-05 0 0)
(6.2045227e-09 -0.0011493387 0 -1.3906014e-05 0 0)
(1.0867929e-09 -0.0034513708 0 -0.0001253016 0 0)
(-4.0207512e-09 -0.0057598048 0 -0.00034880628 0 0)
(-3.4484211e-09 -0.0080698935 0 -0.00068462768 0 0)
(-3.3898945e-09 0.0080698954 0 -0.00068462817 0 0)
(-3.6099049e-09 0.0057598044 0 -0.00034880653 0 0)
(1.0976602e-09 0.0034513686 0 -0.0001253015 0 0)
(6.0221706e-09 0.001149337 0 -1.3905793e-05 0 0)
(6.0136783e-09 -0.0011493382 0 -1.3905828e-05 0 0)
(1.046978e-09 -0.0034513691 0 -0.00012530151 0 0)
(-3.7518731e-09 -0.0057598042 0 -0.00034880638 0 0)
(-3.5308073e-09 -0.0080698945 0 -0.0006846279 0 0)
(-3.1208506e-09 0.0080698962 0 -0.00068462835 0 0)
(-3.6408003e-09 0.0057598039 0 -0.0003488066 0 0)
(1.0881335e-09 0.0034513678 0 -0.00012530144 0 0)
(5.8432368e-09 0.0011493363 0 -1.3905616e-05 0 0)
(5.8493334e-09 -0.0011493375 0 -1.3905654e-05 0 0)
(1.0355954e-09 -0.0034513684 0 -0.00012530145 0 0)
(-3.7684593e-09 -0.0057598037 0 -0.00034880647 0 0)
(-3.2292369e-09 -0.0080698953 0 -0.00068462811 0 0)
(-3.2091015e-09 0.0080698971 0 -0.00068462853 0 0)
(-3.4096263e-09 0.0057598034 0 -0.00034880668 0 0)
(1.0306807e-09 0.0034513663 0 -0.00012530134 0 0)
(5.6678028e-09 0.0011493358 0 -1.3905439e-05 0 0)
(5.6586146e-09 -0.001149337 0 -1.3905471e-05 0 0)
(9.9306267e-10 -0.0034513667 0 -0.00012530136 0 0)
(-3.5154004e-09 -0.0057598032 0 -0.00034880657 0 0)
(-3.3151899e-09 -0.0080698962 0 -0.00068462831 0 0)
(-2.9449522e-09 0.0080698979 0 -0.0006846287 0 0)
(-3.434607e-09 0.0057598029 0 -0.00034880676 0 0)
(1.0244316e-09 0.0034513656 0 -0.00012530129 0 0)
(5.4987928e-09 0.0011493352 0 -1.3905274e-05 0 0)
(5.5029641e-09 -0.0011493363 0 -1.3905308e-05 0 0)
(9.7782227e-10 -0.0034513661 0 -0.00012530131 0 0)
(-3.5364201e-09 -0.0057598027 0 -0.00034880666 0 0)
(-3.0266659e-09 -0.008069897 0 -0.0006846285 0 0)
(-3.0304184e-09 0.0080698988 0 -0.00068462888 0 0)
(-3.2072749e-09 0.0057598025 0 -0.00034880684 0 0)
(9.7451343e-10 0.0034513641 0 -0.00012530121 0 0)
(5.3288917e-09 0.0011493347 0 -1.3905104e-05 0 0)
(5.3141219e-09 -0.0011493358 0 -1.3905128e-05 0 0)
(9.3463336e-10 -0.0034513645 0 -0.00012530123 0 0)
(-3.2963695e-09 -0.0057598022 0 -0.00034880674 0 0)
(-3.1148963e-09 -0.0080698979 0 -0.00068462869 0 0)
(-2.7714146e-09 0.0080698994 0 -0.00068462904 0 0)
(-3.2283252e-09 0.005759802 0 -0.00034880692 0 0)
(9.6970991e-10 0.0034513635 0 -0.00012530117 0 0)
(5.1684251e-09 0.0011493341 0 -1.3904949e-05 0 0)
(5.1664049e-09 -0.0011493353 0 -1.3904976e-05 0 0)
(9.1717147e-10 -0.0034513639 0 -0.00012530117 0 0)
(-3.3200707e-09 -0.0057598017 0 -0.00034880683 0 0)
(-2.8375032e-09 -0.0080698986 0 -0.00068462887 0 0)
(-2.8548619e-09 0.0080699003 0 -0.00068462921 0 0)
(-3.0063232e-09 0.0057598016 0 -0.000348807 0 0)
(9.2527086e-10 0.0034513621 0 -0.0001253011 0 0)
(5.0038008e-09 0.0011493337 0 -1.3904787e-05 0 0)
(4.9811996e-09 -0.0011493348 0 -1.39048e-05 0 0)
(8.747638e-10 -0.0034513625 0 -0.0001253011 0 0)
(-3.0911362e-09 -0.0057598013 0 -0.00034880691 0 0)
(-2.9271692e-09 -0.0080698994 0 -0.00068462905 0 0)
(-2.6013643e-09 0.0080699009 0 -0.00068462936 0 0)
(-3.0251752e-09 0.0057598011 0 -0.00034880708 0 0)
(9.2062045e-10 0.0034513615 0 -0.00012530106 0 0)
(4.8511276e-09 0.0011493331 0 -1.390464e-05 0 0)
(4.8410553e-09 -0.0011493342 0 -1.3904658e-05 0 0)
(8.5622814e-10 -0.0034513619 0 -0.00012530105 0 0)
(-3.1164603e-09 -0.0057598008 0 -0.000348807 0 0)
(-2.6594731e-09 -0.0080699001 0 -0.00068462921 0 0)
(-2.6835332e-09 0.0080699018 0 -0.00068462953 0 0)
(-2.8096099e-09 0.0057598007 0 -0.00034880716 0 0)
(8.8017764e-10 0.0034513602 0 -0.000125301 0 0)
(4.6917823e-09 0.0011493327 0 -1.3904485e-05 0 0)
(4.6609145e-09 -0.0011493338 0 -1.3904488e-05 0 0)
(8.1553406e-10 -0.0034513606 0 -0.00012530098 0 0)
(-2.8972906e-09 -0.0057598004 0 -0.00034880708 0 0)
(-2.7500085e-09 -0.0080699009 0 -0.00068462938 0 0)
(-2.4358463e-09 0.0080699023 0 -0.00068462967 0 0)
(-2.8276046e-09 0.0057598003 0 -0.00034880724 0 0)
(8.748643e-10 0.0034513596 0 -0.00012530096 0 0)
(4.5464651e-09 0.0011493322 0 -1.3904347e-05 0 0)
(4.5280868e-09 -0.0011493333 0 -1.3904354e-05 0 0)
(7.9668905e-10 -0.00345136 0 -0.00012530094 0 0)
(-2.9236101e-09 -0.0057598 0 -0.00034880716 0 0)
(-2.4909129e-09 -0.0080699015 0 -0.00068462953 0 0)
(-2.5173815e-09 0.0080699031 0 -0.00068462983 0 0)
(-2.6192094e-09 0.0057597999 0 -0.00034880733 0 0)
(8.3740555e-10 0.0034513584 0 -0.0001253009 0 0)
(4.3925152e-09 0.0011493318 0 -1.3904199e-05 0 0)
(4.3540646e-09 -0.0011493328 0 -1.3904192e-05 0 0)
(7.5825788e-10 -0.0034513587 0 -0.00012530087 0 0)
(-2.7132252e-09 -0.0057597996 0 -0.00034880724 0 0)
(-2.5819626e-09 -0.0080699023 0 -0.00068462969 0 0)
(-2.2757131e-09 0.0080699036 0 -0.00068462997 0 0)
(-2.6373552e-09 0.0057597995 0 -0.00034880741 0 0)
(8.3099074e-10 0.0034513578 0 -0.00012530087 0 0)
(4.2542936e-09 0.0011493314 0 -1.3904068e-05 0 0)
(4.2283249e-09 -0.0011493324 0 -1.3904066e-05 0 0)
(7.3958321e-10 -0.0034513582 0 -0.00012530083 0 0)
(-2.740214e-09 -0.0057597992 0 -0.00034880731 0 0)
(-2.3306443e-09 -0.0080699028 0 -0.00068462984 0 0)
(-2.3571525e-09 0.0080699044 0 -0.00068463012 0 0)
(-2.4365595e-09 0.0057597992 0 -0.00034880749 0 0)
(7.9586489e-10 0.0034513567 0 -0.00012530082 0 0)
(4.1059068e-09 0.001149331 0 -1.3903927e-05 0 0)
(4.0611465e-09 -0.0011493319 0 -1.3903911e-05 0 0)
(7.0369025e-10 -0.0034513571 0 -0.00012530077 0 0)
(-2.5379069e-09 -0.0057597989 0 -0.00034880739 0 0)
(-2.4220289e-09 -0.0080699036 0 -0.00068462999 0 0)
(-2.121614e-09 0.0080699048 0 -0.00068463025 0 0)
(-2.4555768e-09 0.0057597988 0 -0.00034880757 0 0)
(7.8818347e-10 0.0034513562 0 -0.00012530079 0 0)
(3.9746236e-09 0.0011493306 0 -1.3903803e-05 0 0)
(3.9422792e-09 -0.0011493316 0 -1.3903793e-05 0 0)
(6.8546403e-10 -0.0034513566 0 -0.00012530074 0 0)
(-2.5654522e-09 -0.0057597985 0 -0.00034880747 0 0)
(-2.1778758e-09 -0.0080699041 0 -0.00068463012 0 0)
(-2.203393e-09 0.0080699055 0 -0.00068463039 0 0)
(-2.2625323e-09 0.0057597985 0 -0.00034880765 0 0)
(7.549978e-10 0.0034513551 0 -0.00012530074 0 0)
(3.8319798e-09 0.0011493302 0 -1.3903668e-05 0 0)
(3.7824119e-09 -0.0011493311 0 -1.3903646e-05 0 0)
(6.5219946e-10 -0.0034513555 0 -0.00012530068 0 0)
(-2.3707113e-09 -0.0057597982 0 -0.00034880754 0 0)
(-2.2695505e-09 -0.0080699048 0 -0.00068463026 0 0)
(-1.974012e-09 0.008069906 0 -0.00068463051 0 0)
(-2.2829024e-09 0.0057597981 0 -0.00034880772 0 0)
(7.4606519e-10 0.0034513547 0 -0.00012530072 0 0)
(3.7075326e-09 0.0011493298 0 -1.3903551e-05 0 0)
(3.6702083e-09 -0.0011493308 0 -1.3903535e-05 0 0)
(6.3456625e-10 -0.003451355 0 -0.00012530065 0 0)
(-2.3988414e-09 -0.0057597978 0 -0.00034880761 0 0)
(-2.0321071e-09 -0.0080699052 0 -0.00068463039 0 0)
(-2.0564742e-09 0.0080699066 0 -0.00068463065 0 0)
(-2.0975691e-09 0.0057597978 0 -0.0003488078 0 0)
(7.1460128e-10 0.0034513537 0 -0.00012530067 0 0)
(3.570795e-09 0.0011493295 0 -1.3903423e-05 0 0)
(3.5179215e-09 -0.0011493304 0 -1.3903395e-05 0 0)
(6.039028e-10 -0.003451354 0 -0.0001253006 0 0)
(-2.2112864e-09 -0.0057597975 0 -0.00034880769 0 0)
(-2.1241217e-09 -0.0080699059 0 -0.00068463053 0 0)
(-1.8332104e-09 0.008069907 0 -0.00068463077 0 0)
(-2.1196088e-09 0.0057597974 0 -0.00034880787 0 0)
(7.0454084e-10 0.0034513532 0 -0.00012530065 0 0)
(3.4531007e-09 0.0011493291 0 -1.3903312e-05 0 0)
(3.4121755e-09 -0.0011493301 0 -1.3903291e-05 0 0)
(5.8692334e-10 -0.0034513536 0 -0.00012530057 0 0)
(-2.2401131e-09 -0.0057597972 0 -0.00034880775 0 0)
(-1.8930407e-09 -0.0080699063 0 -0.00068463064 0 0)
(-1.9166233e-09 0.0080699076 0 -0.0006846309 0 0)
(-1.9418284e-09 0.0057597972 0 -0.00034880794 0 0)
(6.7468939e-10 0.0034513523 0 -0.00012530061 0 0)
(3.3223965e-09 0.0011493288 0 -1.390319e-05 0 0)
(3.2675909e-09 -0.0011493296 0 -1.3903159e-05 0 0)
(5.5876529e-10 -0.0034513526 0 -0.00012530053 0 0)
(-2.0594443e-09 -0.0057597969 0 -0.00034880783 0 0)
(-1.9855043e-09 -0.0080699069 0 -0.00068463077 0 0)
(-1.6993797e-09 0.008069908 0 -0.000684631 0 0)
(-1.9657365e-09 0.0057597968 0 -0.00034880801 0 0)
(6.6367905e-10 0.0034513519 0 -0.00012530058 0 0)
(3.2113679e-09 0.0011493285 0 -1.3903085e-05 0 0)
(3.1680955e-09 -0.0011493294 0 -1.3903061e-05 0 0)
(5.4245221e-10 -0.0034513523 0 -0.0001253005 0 0)
(-2.0891189e-09 -0.0057597966 0 -0.00034880789 0 0)
(-1.7605082e-09 -0.0080699073 0 -0.00068463088 0 0)
(-1.7839477e-09 0.0080699086 0 -0.00068463113 0 0)
(-1.7952698e-09 0.0057597966 0 -0.00034880808 0 0)