/*--------------------------------*- C++ -*----------------------------------*\
| =========                 |                                                 |
| \\      /  F ield         | OpenFOAM: The Open Source CFD Toolbox           |
|  \\    /   O peration     | Version:  5.x                                   |
|   \\  /    A nd           | Web:      www.OpenFOAM.org                      |
|    \\/     M anipulation  |                                                 |
\*---------------------------------------------------------------------------*/
FoamFile
{
    version     2.0;
    format      ascii;
    class       volVectorField;
    location    "10";
    object      U;
}
// * * * * * * * * * * * * * * * * * * * * * * * * * * * * * * * * * * * * * //

dimensions      [0 1 -1 0 0 0 0];

internalField   nonuniform List<vector> 
1920
(
(-2.4991913e-07 1.4837847e-07 0)
(-5.4193195e-07 6.4374542e-08 0)
(-8.461535e-07 -3.0599053e-08 0)
(-4.0399355e-07 -8.5754334e-08 0)
(4.0466901e-07 -8.689766e-08 0)
(8.4655937e-07 -2.9563175e-08 0)
(5.4215591e-07 6.3689033e-08 0)
(2.4984754e-07 1.4862371e-07 0)
(-6.6141492e-08 2.3523818e-07 0)
(-1.1255387e-06 4.3175751e-07 0)
(-1.793284e-06 -6.7659677e-08 0)
(-9.1208089e-07 -6.2616827e-07 0)
(9.1367518e-07 -6.2397899e-07 0)
(1.7946664e-06 -6.9222503e-08 0)
(1.1257792e-06 4.3327022e-07 0)
(6.6433325e-08 2.3486228e-07 0)
(-1.2521423e-07 6.189198e-07 0)
(-1.6674023e-06 9.9315353e-07 0)
(-2.5422813e-06 -1.4804922e-07 0)
(-1.2096103e-06 -1.4429398e-06 0)
(1.2120182e-06 -1.4459393e-06 0)
(2.5437387e-06 -1.4461984e-07 0)
(1.6684747e-06 9.9180075e-07 0)
(1.2500052e-07 6.198787e-07 0)
(-1.7992743e-07 1.1058429e-06 0)
(-2.1131245e-06 1.6730504e-06 0)
(-2.9686181e-06 -2.7664848e-07 0)
(-1.4748314e-06 -2.502401e-06 0)
(1.4773402e-06 -2.4978169e-06 0)
(2.9707664e-06 -2.7924506e-07 0)
(2.1137122e-06 1.6766294e-06 0)
(1.8027087e-07 1.1053808e-06 0)
(-2.4516594e-07 1.7014889e-06 0)
(-2.3030922e-06 2.4386812e-06 0)
(-3.2782818e-06 -4.5622455e-07 0)
(-1.5252395e-06 -3.6838343e-06 0)
(1.5278188e-06 -3.6881224e-06 0)
(3.2799207e-06 -4.5052138e-07 0)
(2.3042503e-06 2.4372849e-06 0)
(2.4504547e-07 1.7032766e-06 0)
(-2.4175136e-07 2.3449586e-06 0)
(-2.4131169e-06 3.220486e-06 0)
(-3.280937e-06 -6.4165149e-07 0)
(-1.6151496e-06 -4.9282805e-06 0)
(1.6171528e-06 -4.922209e-06 0)
(3.2826446e-06 -6.4443444e-07 0)
(2.4136821e-06 3.2256485e-06 0)
(2.4197495e-07 2.3447112e-06 0)
(-2.5969429e-07 2.9827999e-06 0)
(-2.2999301e-06 4.0013144e-06 0)
(-3.237853e-06 -8.4130638e-07 0)
(-1.49648e-06 -6.1476458e-06 0)
(1.4979217e-06 -6.1523329e-06 0)
(3.2388174e-06 -8.3438003e-07 0)
(2.3005596e-06 4.0002763e-06 0)
(2.5970028e-07 2.9851328e-06 0)
(-2.2255578e-07 3.5913927e-06 0)
(-2.1708031e-06 4.7311816e-06 0)
(-2.9532554e-06 -1.0196687e-06 0)
(-1.4493901e-06 -7.3110142e-06 0)
(1.4499981e-06 -7.304582e-06 0)
(2.953753e-06 -1.0221699e-06 0)
(2.1710478e-06 4.7369561e-06 0)
(2.2257107e-07 3.5913963e-06 0)
(-2.1200042e-07 4.137406e-06 0)
(-1.8974004e-06 5.4035039e-06 0)
(-2.6864118e-06 -1.1902838e-06 0)
(-1.2452575e-06 -8.3571523e-06 0)
(1.2450547e-06 -8.3615239e-06 0)
(2.6863334e-06 -1.1833831e-06 0)
(1.8972823e-06 5.4028455e-06 0)
(2.1209873e-07 4.1398125e-06 0)
(-1.6496571e-07 4.6155091e-06 0)
(-1.6534844e-06 5.9884459e-06 0)
(-2.2811395e-06 -1.3271407e-06 0)
(-1.1207128e-06 -9.2851326e-06 0)
(1.1198095e-06 -9.2793306e-06 0)
(2.280365e-06 -1.3291949e-06 0)
(1.6533327e-06 5.993792e-06 0)
(1.6480662e-07 4.6156376e-06 0)
(-1.4216156e-07 5.012613e-06 0)
(-1.3449217e-06 6.4912496e-06 0)
(-1.9323244e-06 -1.4475244e-06 0)
(-9.0500894e-07 -1.0062722e-05 0)
(9.0339488e-07 -1.0066361e-05 0)
(1.9313191e-06 -1.4416862e-06 0)
(1.344207e-06 6.4907751e-06 0)
(1.4230253e-07 5.0146675e-06 0)
(-1.0173165e-07 5.3352418e-06 0)
(-1.0873225e-06 6.9003314e-06 0)
(-1.5373315e-06 -1.5347226e-06 0)
(-7.5718624e-07 -1.0707903e-05 0)
(7.5517822e-07 -1.0703339e-05 0)
(1.5356725e-06 -1.5364111e-06 0)
(1.0868625e-06 6.9045002e-06 0)
(1.0148754e-07 5.3353335e-06 0)
(-7.8162832e-08 5.5833309e-06 0)
(-8.2437783e-07 7.2297191e-06 0)
(-1.2113831e-06 -1.6058184e-06 0)
(-5.7734933e-07 -1.1211848e-05 0)
(5.7486782e-07 -1.1214661e-05 0)
(1.2097849e-06 -1.6016284e-06 0)
(8.233523e-07 7.2291689e-06 0)
(7.8300135e-08 5.5847834e-06 0)
(-5.0637113e-08 5.7697258e-06 0)
(-6.1320649e-07 7.4796642e-06 0)
(-9.0174299e-07 -1.6509359e-06 0)
(-4.4597516e-07 -1.1603023e-05 0)
(4.433519e-07 -1.1599894e-05 0)
(8.9964408e-07 -1.6524791e-06 0)
(6.1255291e-07 7.4823037e-06 0)
(5.0390161e-08 5.7696496e-06 0)
(-3.2339786e-08 5.9007012e-06 0)
(-4.2918276e-07 7.6676864e-06 0)
(-6.5422244e-07 -1.6847941e-06 0)
(-3.2087404e-07 -1.188586e-05 0)
(3.1796669e-07 -1.1887987e-05 0)
(6.5230095e-07 -1.6824191e-06 0)
(4.2806305e-07 7.6668083e-06 0)
(3.2440652e-08 5.9014714e-06 0)
(-1.7556e-08 5.9898985e-06 0)
(-2.8602704e-07 7.7991859e-06 0)
(-4.5108819e-07 -1.7015164e-06 0)
(-2.2469062e-07 -1.2089393e-05 0)
(2.2174096e-07 -1.2087618e-05 0)
(4.4880948e-07 -1.7032027e-06 0)
(2.8523676e-07 7.8002364e-06 0)
(1.7349234e-08 5.9895543e-06 0)
(-6.0491915e-09 6.0448038e-06 0)
(-1.7913411e-07 7.8906508e-06 0)
(-2.9292694e-07 -1.7125066e-06 0)
(-1.5169496e-07 -1.222284e-05 0)
(1.4857228e-07 -1.2224548e-05 0)
(2.9079098e-07 -1.7118701e-06 0)
(1.7800514e-07 7.8892048e-06 0)
(6.0970761e-09 6.0448996e-06 0)
(-6.3858387e-10 6.0764653e-06 0)
(-9.7934171e-08 7.9478435e-06 0)
(-1.8180948e-07 -1.7139593e-06 0)
(-9.1722584e-08 -1.2309642e-05 0)
(8.8574166e-08 -1.230899e-05 0)
(1.7943978e-07 -1.7160872e-06 0)
(9.7020967e-08 7.9473698e-06 0)
(4.7902598e-10 6.0757625e-06 0)
(5.3222593e-09 6.0907235e-06 0)
(-4.8471386e-08 7.9835265e-06 0)
(-9.6496323e-08 -1.7138289e-06 0)
(-5.7477206e-08 -1.2358132e-05 0)
(5.4221023e-08 -1.23597e-05 0)
(9.4207616e-08 -1.7147744e-06 0)
(4.7349042e-08 7.9812917e-06 0)
(-5.3274861e-09 6.0901712e-06 0)
(5.2771503e-09 6.0949035e-06 0)
(-1.0763485e-08 8.0016866e-06 0)
(-4.8628829e-08 -1.7093757e-06 0)
(-2.5134342e-08 -1.2384263e-05 0)
(2.1881771e-08 -1.2384522e-05 0)
(4.623048e-08 -1.712202e-06 0)
(9.7564422e-09 7.9997804e-06 0)
(-5.3989155e-09 6.093761e-06 0)
(7.8606604e-09 6.0924294e-06 0)
(4.1736686e-09 8.0107137e-06 0)
(-1.0640092e-08 -1.7055947e-06 0)
(-1.4574459e-08 -1.2393326e-05 0)
(1.133833e-08 -1.2394979e-05 0)
(8.311118e-09 -1.7079581e-06 0)
(-5.2601527e-09 8.0075281e-06 0)
(-7.9063501e-09 6.091255e-06 0)
(5.4042834e-09 6.0873235e-06 0)
(1.7423466e-08 8.012561e-06 0)
(1.6538142e-09 -1.7004168e-06 0)
(8.9879964e-10 -1.239458e-05 0)
(-4.0246078e-09 -1.2395552e-05 0)
(-3.9322744e-09 -1.7040934e-06 0)
(-1.8438301e-08 8.0093332e-06 0)
(-5.4963946e-09 6.0856939e-06 0)
(6.4976953e-09 6.081034e-06 0)
(1.5808416e-08 8.0119605e-06 0)
(1.4771381e-08 -1.6966792e-06 0)
(-4.299044e-10 -1.2390413e-05 0)
(-2.5093518e-09 -1.2392283e-05 0)
(-1.6916705e-08 -1.7002773e-06 0)
(-1.6776381e-08 8.0077796e-06 0)
(-6.563371e-09 6.0792849e-06 0)
(3.4393966e-09 6.0753295e-06 0)
(1.8419979e-08 8.0094327e-06 0)
(1.1123256e-08 -1.692846e-06 0)
(6.7955095e-09 -1.2385424e-05 0)
(-9.4662722e-09 -1.2386953e-05 0)
(-1.3048201e-08 -1.697376e-06 0)
(-1.9312543e-08 8.0050592e-06 0)
(-3.5026807e-09 6.0732303e-06 0)
(4.2066038e-09 6.0704913e-06 0)
(1.1169614e-08 8.0072546e-06 0)
(1.4207146e-08 -1.6903925e-06 0)
(8.9350866e-10 -1.2380104e-05 0)
(-3.1876748e-09 -1.2382217e-05 0)
(-1.5904719e-08 -1.6949847e-06 0)
(-1.1906856e-08 8.0021875e-06 0)
(-4.2712852e-09 6.0682629e-06 0)
(1.3484401e-09 6.0670579e-06 0)
(1.0904197e-08 8.0052261e-06 0)
(5.6597411e-09 -1.6882353e-06 0)
(5.146038e-09 -1.2376364e-05 0)
(-7.0274123e-09 -1.2378289e-05 0)
(-6.9908959e-09 -1.6934666e-06 0)
(-1.1545524e-08 7.9999775e-06 0)
(-1.3791224e-09 6.0645831e-06 0)
(2.2996412e-09 6.0648151e-06 0)
(3.1837086e-09 8.0042589e-06 0)
(6.4212346e-09 -1.6870981e-06 0)
(-1.7140701e-09 -1.2373808e-05 0)
(3.4218136e-10 -1.2376114e-05 0)
(-7.4543977e-09 -1.6923745e-06 0)
(-3.5960685e-09 7.998559e-06 0)
(-2.3476064e-09 6.0622575e-06 0)
(-1.5716658e-10 6.0637807e-06 0)
(3.3383851e-09 8.0039301e-06 0)
(-2.1878731e-09 -1.6862541e-06 0)
(2.0860765e-09 -1.2373072e-05 0)
(-2.9689517e-09 -1.2375233e-05 0)
(1.6015423e-09 -1.6919158e-06 0)
(-3.6476965e-09 7.9981595e-06 0)
(1.6171145e-10 6.061085e-06 0)
(1.0901819e-09 6.0636359e-06 0)
(-3.162183e-09 8.0045245e-06 0)
(-7.4263019e-10 -1.6860628e-06 0)
(-4.3985716e-09 -1.2373514e-05 0)
(4.0678594e-09 -1.2375908e-05 0)
(4.6635759e-10 -1.691668e-06 0)
(3.1126843e-09 7.9985356e-06 0)
(-1.1141688e-09 6.0609331e-06 0)
(-1.0254238e-09 6.0642577e-06 0)
(-1.7532297e-09 8.0056433e-06 0)
(-8.0150633e-09 -1.6860497e-06 0)
(-1.9879672e-10 -1.2375293e-05 0)
(3.4250606e-10 -1.2377533e-05 0)
(8.18991e-09 -1.6918162e-06 0)
(1.7874696e-09 7.9997364e-06 0)
(1.0632221e-09 6.061522e-06 0)
(4.6077472e-10 6.0653841e-06 0)
(-6.9413506e-09 8.0073492e-06 0)
(-5.2673451e-09 -1.6864201e-06 0)
(-6.0801208e-09 -1.2377819e-05 0)
(6.7268361e-09 -1.238018e-05 0)
(5.7017178e-09 -1.6920011e-06 0)
(7.2277569e-09 8.0014323e-06 0)
(-4.6157033e-10 6.0627217e-06 0)
(-1.4365975e-09 6.0669058e-06 0)
(-4.4506257e-09 8.0093411e-06 0)
(-1.1258831e-08 -1.686858e-06 0)
(-1.4003904e-09 -1.2381142e-05 0)
(2.4285513e-09 -1.238332e-05 0)
(1.2085919e-08 -1.6924148e-06 0)
(4.7775994e-09 8.0036547e-06 0)
(1.5009114e-09 6.0642998e-06 0)
(1.9565413e-10 6.0686487e-06 0)
(-8.7257837e-09 8.0116404e-06 0)
(-7.477962e-09 -1.687514e-06 0)
(-6.8353161e-09 -1.2384804e-05 0)
(8.2520947e-09 -1.2387022e-05 0)
(8.4694356e-09 -1.6927688e-06 0)
(9.2713267e-09 8.0061089e-06 0)
(-1.7954032e-10 6.0661829e-06 0)
(-1.585671e-09 6.0705556e-06 0)
(-5.5575651e-09 8.0140358e-06 0)
(-1.2630053e-08 -1.6881607e-06 0)
(-1.8381206e-09 -1.2388874e-05 0)
(3.4982123e-09 -1.2390882e-05 0)
(1.3919784e-08 -1.693255e-06 0)
(6.0876807e-09 8.0088488e-06 0)
(1.6669892e-09 6.0682102e-06 0)
(1.1853742e-10 6.0725209e-06 0)
(-9.3240788e-09 8.016568e-06 0)
(-8.2421273e-09 -1.6889354e-06 0)
(-7.0314086e-09 -1.2393016e-05 0)
(8.9376551e-09 -1.2395009e-05 0)
(9.5831955e-09 -1.6936462e-06 0)
(1.0028179e-08 8.011646e-06 0)
(-9.4082061e-11 6.0703589e-06 0)
(-1.6098326e-09 6.0745324e-06 0)
(-5.8143952e-09 8.0190846e-06 0)
(-1.2952052e-08 -1.6896549e-06 0)
(-1.8883322e-09 -1.2397338e-05 0)
(3.8904087e-09 -1.2399104e-05 0)
(1.4488647e-08 -1.6941223e-06 0)
(6.4465784e-09 8.0145731e-06 0)
(1.6983724e-09 6.0725265e-06 0)
(1.2098473e-10 6.0765255e-06 0)
(-9.3438336e-09 8.0216547e-06 0)
(-8.2834157e-09 -1.6904571e-06 0)
(-6.9827213e-09 -1.2401587e-05 0)
(9.0931688e-09 -1.2403308e-05 0)
(9.764189e-09 -1.6945025e-06 0)
(1.0106835e-08 8.0174625e-06 0)
(-9.6384844e-11 6.0747205e-06 0)
(-1.5861026e-09 6.0785162e-06 0)
(-5.7002836e-09 8.0241564e-06 0)
(-1.2801808e-08 -1.6911792e-06 0)
(-1.8064154e-09 -1.2405902e-05 0)
(3.8830601e-09 -1.2407394e-05 0)
(1.438779e-08 -1.6949478e-06 0)
(6.3434817e-09 8.0203931e-06 0)
(1.6737126e-09 6.076877e-06 0)
(1.4818411e-10 6.0804598e-06 0)
(-9.1385804e-09 8.0266806e-06 0)
(-8.0430514e-09 -1.6919628e-06 0)
(-6.8742192e-09 -1.2410079e-05 0)
(8.9474709e-09 -1.2411515e-05 0)
(9.4872182e-09 -1.6953106e-06 0)
(9.8785019e-09 8.023243e-06 0)
(-1.2968488e-10 6.0790171e-06 0)
(-1.5503683e-09 6.0823872e-06 0)
(-5.4666537e-09 8.0291177e-06 0)
(-1.2496092e-08 -1.6926537e-06 0)
(-1.7199214e-09 -1.2414272e-05 0)
(3.6624142e-09 -1.2415491e-05 0)
(1.3978683e-08 -1.6957308e-06 0)
(6.0520211e-09 8.0260879e-06 0)
(1.6314465e-09 6.0810997e-06 0)
(1.7746566e-10 6.084261e-06 0)
(-8.8777533e-09 8.0315711e-06 0)
(-7.7375603e-09 -1.6933968e-06 0)
(-6.7852742e-09 -1.2418307e-05 0)
(8.6477622e-09 -1.2419473e-05 0)
(9.0196905e-09 -1.6960852e-06 0)
(9.5378089e-09 8.0288383e-06 0)
(-1.6882117e-10 6.0831497e-06 0)
(-1.5159538e-09 6.0861188e-06 0)
(-5.2212908e-09 8.0339346e-06 0)
(-1.217443e-08 -1.6940419e-06 0)
(-1.6710264e-09 -1.242234e-05 0)
(3.3422741e-09 -1.2423309e-05 0)
(1.3454503e-08 -1.6964932e-06 0)
(5.705786e-09 8.0315613e-06 0)
(1.5875131e-09 6.0851393e-06 0)
(2.0207213e-10 6.0879249e-06 0)
(-8.6256356e-09 8.036317e-06 0)
(-7.4487791e-09 -1.6947351e-06 0)
(-6.7329808e-09 -1.2426213e-05 0)
(8.2824724e-09 -1.2427143e-05 0)
(8.4963643e-09 -1.69685e-06 0)
(9.1744324e-09 8.0341904e-06 0)
(-2.0473525e-10 6.0870919e-06 0)
(-1.4858695e-09 6.0897187e-06 0)
(-4.9975307e-09 8.0386122e-06 0)
(-1.1879884e-08 -1.69533e-06 0)
(-1.6582662e-09 -1.243008e-05 0)
(2.9888614e-09 -1.243084e-05 0)
(1.2908457e-08 -1.6972566e-06 0)
(5.3616211e-09 8.0367822e-06 0)
(1.5470799e-09 6.0889878e-06 0)
(2.2171617e-10 6.0914644e-06 0)
(-8.396438e-09 8.0409301e-06 0)
(-7.1924541e-09 -1.6959711e-06 0)
(-6.7064127e-09 -1.2433794e-05 0)
(7.9025277e-09 -1.2434531e-05 0)
(7.9784174e-09 -1.6976232e-06 0)
(8.8238071e-09 8.0392867e-06 0)
(-2.3539528e-10 6.0908469e-06 0)
(-1.4593667e-09 6.0932011e-06 0)
(-4.7967707e-09 8.0431641e-06 0)
(-1.1612666e-08 -1.6965163e-06 0)
(-1.6642002e-09 -1.2437501e-05 0)
(2.6392151e-09 -1.2438098e-05 0)
(1.2380691e-08 -1.6980345e-06 0)
(5.0391556e-09 8.0417499e-06 0)
(1.5108953e-09 6.0926548e-06 0)
(2.3800453e-10 6.0948924e-06 0)
(-8.1852224e-09 8.0454228e-06 0)
(-6.9587903e-09 -1.6971071e-06 0)
(-6.6870456e-09 -1.2441065e-05 0)
(7.5358566e-09 -1.2441657e-05 0)
(7.4897992e-09 -1.698414e-06 0)
(8.4963061e-09 8.0441346e-06 0)
(-2.6130787e-10 6.0944275e-06 0)
(-1.4348829e-09 6.0965766e-06 0)
(-4.6102959e-09 8.0475998e-06 0)
(-1.1359215e-08 -1.6976061e-06 0)
(-1.6700024e-09 -1.2444623e-05 0)
(2.3126992e-09 -1.2445102e-05 0)
(1.1885301e-08 -1.6988317e-06 0)
(4.7418823e-09 8.0464766e-06 0)
(1.4782517e-09 6.0961543e-06 0)
(2.5260408e-10 6.098217e-06 0)
(-7.9826156e-09 8.0498012e-06 0)
(-6.7325024e-09 -1.6981504e-06 0)
(-6.6585048e-09 -1.2448045e-05 0)
(7.1963309e-09 -1.2448537e-05 0)
(7.0368709e-09 -1.6992233e-06 0)
(8.1919996e-09 8.0487491e-06 0)
(-2.8360578e-10 6.0978474e-06 0)
(-1.4111073e-09 6.0998505e-06 0)
(-4.4287336e-09 8.0519221e-06 0)
(-1.1105405e-08 -1.698608e-06 0)
(-1.6614345e-09 -1.2451462e-05 0)
(2.0178853e-09 -1.2451866e-05 0)
(1.1424378e-08 -1.699646e-06 0)
(4.4672149e-09 8.0509784e-06 0)
(1.44818e-09 6.0994995e-06 0)
(2.6670591e-10 6.1014408e-06 0)
(-7.7805825e-09 8.0540651e-06 0)
(-6.5009152e-09 -1.6991108e-06 0)
(-6.6098837e-09 -1.2454751e-05 0)
(6.8892115e-09 -1.2455181e-05 0)
(6.6182231e-09 -1.7000467e-06 0)
(7.9074198e-09 8.0531467e-06 0)
(-3.0336562e-10 6.101119e-06 0)
(-1.3872149e-09 6.1030234e-06 0)
(-4.2452211e-09 8.0561278e-06 0)
(-1.0841165e-08 -1.6995324e-06 0)
(-1.6301525e-09 -1.2458032e-05 0)
(1.7567693e-09 -1.2458397e-05 0)
(1.0994916e-08 -1.7004711e-06 0)
(4.210863e-09 8.0552714e-06 0)
(1.4198445e-09 6.1027013e-06 0)
(2.8100178e-10 6.1045627e-06 0)
(-7.5739503e-09 8.0582093e-06 0)
(-6.2561127e-09 -1.6999987e-06 0)
(-6.5358394e-09 -1.2461192e-05 0)
(6.6145883e-09 -1.2461594e-05 0)
(6.2293847e-09 -1.7008764e-06 0)
(7.6384002e-09 8.0573426e-06 0)
(-3.214319e-10 6.1042517e-06 0)
(-1.3628029e-09 6.1060929e-06 0)
(-4.0558253e-09 8.0602105e-06 0)
(-1.0561125e-08 -1.7003894e-06 0)
(-1.572931e-09 -1.2464342e-05 0)
(1.527493e-09 -1.2464696e-05 0)
(1.0592097e-08 -1.7012982e-06 0)
(3.9685707e-09 8.0593699e-06 0)
(1.3926252e-09 6.1057681e-06 0)
(2.9581092e-10 6.1075796e-06 0)
(-7.3602257e-09 8.0622263e-06 0)
(-5.9945829e-09 -1.7008242e-06 0)
(-6.4354113e-09 -1.2467378e-05 0)
(6.3696472e-09 -1.2467775e-05 0)
(5.8650532e-09 -1.7017034e-06 0)
(7.381159e-09 8.0613501e-06 0)
(-3.3841631e-10 6.1072529e-06 0)
(-1.3377579e-09 6.1090556e-06 0)
(-3.858995e-09 8.0641616e-06 0)
(-1.0263752e-08 -1.7011889e-06 0)
(-1.4902361e-09 -1.24704e-05 0)
(1.3261688e-09 -1.2470764e-05 0)
(1.0210862e-08 -1.7021184e-06 0)
(3.7367264e-09 8.0632858e-06 0)
(1.3660987e-09 6.1087062e-06 0)
(3.1121515e-10 6.1104877e-06 0)
(-7.1389073e-09 8.0661075e-06 0)
(-5.7160826e-09 -1.7015964e-06 0)
(-6.3105757e-09 -1.2473313e-05 0)
(6.1501895e-09 -1.2473723e-05 0)
(5.5201517e-09 -1.7025189e-06 0)
(7.132645e-09 8.0651798e-06 0)
(-3.5474107e-10 6.1101278e-06 0)
(-1.3121401e-09 6.1119074e-06 0)
(-3.6548233e-09 8.0679729e-06 0)
(-9.9501598e-09 -1.701939e-06 0)
(-1.3848244e-09 -1.2476209e-05 0)
(1.1481035e-09 -1.2476596e-05 0)
(9.8466457e-09 -1.7029233e-06 0)
(3.5125192e-09 8.0670285e-06 0)
(1.3399971e-09 6.11152e-06 0)
(3.2716177e-10 6.1132831e-06 0)
(-6.9107849e-09 8.069845e-06 0)
(-5.4224696e-09 -1.7023231e-06 0)
(-6.1649794e-09 -1.2479001e-05 0)
(5.9516305e-09 -1.2479435e-05 0)
(5.1903143e-09 -1.7033152e-06 0)
(6.890593e-09 8.0688401e-06 0)
(-3.7068362e-10 6.1128803e-06 0)
(-1.2860995e-09 6.1146448e-06 0)
(-3.4444085e-09 8.0716369e-06 0)
(-9.6230416e-09 -1.7026469e-06 0)
(-1.260625e-09 -1.2481773e-05 0)
(9.8858534e-10 -1.2482191e-05 0)
(9.495695e-09 -1.7037056e-06 0)
(3.2939181e-09 8.0706056e-06 0)
(1.3141701e-09 6.1142128e-06 0)
(3.4353131e-10 6.1159626e-06 0)
(-6.6773843e-09 8.073432e-06 0)
(-5.1167629e-09 -1.7030105e-06 0)
(-6.0029907e-09 -1.2484444e-05 0)
(5.7696142e-09 -1.2484909e-05 0)
(4.8720719e-09 -1.7040856e-06 0)
(6.653463e-09 8.0723378e-06 0)
(-3.8641312e-10 6.1155132e-06 0)
(-1.2598237e-09 6.1172651e-06 0)
(-3.2293816e-09 8.0751478e-06 0)
(-9.2858704e-09 -1.7033182e-06 0)
(-1.1219519e-09 -1.2487093e-05 0)
(8.4334588e-10 -1.2487547e-05 0)
(9.1551605e-09 -1.7044597e-06 0)
(3.0795825e-09 8.0740229e-06 0)
(1.2885535e-09 6.116787e-06 0)
(3.6017823e-10 6.1185239e-06 0)
(-6.4405747e-09 8.0768636e-06 0)
(-4.8024737e-09 -1.7036636e-06 0)
(-5.8290644e-09 -1.2489645e-05 0)
(5.600348e-09 -1.2490142e-05 0)
(4.5628708e-09 -1.7048251e-06 0)
(6.4203357e-09 8.0756778e-06 0)
(-4.0201854e-10 6.1180287e-06 0)
(-1.2335076e-09 6.1197664e-06 0)
(-3.0115862e-09 8.0785013e-06 0)
(-8.942353e-09 -1.703957e-06 0)
(-9.7300446e-10 -1.2492172e-05 0)
(7.0878698e-10 -1.2492661e-05 0)
(8.8230612e-09 -1.705181e-06 0)
(2.8687473e-09 8.077285e-06 0)
(1.2631447e-09 6.1192447e-06 0)
(3.7695386e-10 6.1209657e-06 0)
(-6.2023134e-09 8.0801364e-06 0)
(-4.4831702e-09 -1.7042861e-06 0)
(-5.6473605e-09 -1.2494606e-05 0)
(5.4407415e-09 -1.2495134e-05 0)
(4.2609938e-09 -1.7055301e-06 0)
(6.1907932e-09 8.0788645e-06 0)
(-4.17531e-10 6.1204284e-06 0)
(-1.2073363e-09 6.122148e-06 0)
(-2.7928766e-09 8.0816951e-06 0)
(-8.5960901e-09 -1.7045667e-06 0)
(-8.175872e-10 -1.2497012e-05 0)
(5.8204828e-10 -1.2497533e-05 0)
(8.498176e-09 -1.7058666e-06 0)
(2.6611014e-09 8.0803956e-06 0)
(1.2379835e-09 6.1215876e-06 0)
(3.9371835e-10 6.1232878e-06 0)
(-5.9644885e-09 8.0832489e-06 0)
(-4.1622179e-09 -1.7048807e-06 0)
(-5.4615479e-09 -1.2499329e-05 0)
(5.2884181e-09 -1.2499885e-05 0)
(3.9654322e-09 -1.7061981e-06 0)
(5.9647995e-09 8.0819012e-06 0)
(-4.3294148e-10 6.1227143e-06 0)
(-1.1814775e-09 6.12441e-06 0)
(-2.5749985e-09 8.0847284e-06 0)
(-8.2503822e-09 -1.7051496e-06 0)
(-6.5898115e-10 -1.2501615e-05 0)
(4.6097472e-10 -1.2502165e-05 0)
(8.1799031e-09 -1.7065147e-06 0)
(2.4566712e-09 8.083358e-06 0)
(1.2131357e-09 6.1238173e-06 0)
(4.1034595e-10 6.1254907e-06 0)
(-5.7288307e-09 8.0862012e-06 0)
(-3.8426385e-09 -1.7054494e-06 0)
(-5.2747307e-09 -1.2503817e-05 0)
(5.1416505e-09 -1.2504396e-05 0)
(3.675738e-09 -1.706828e-06 0)
(5.7425898e-09 8.0847911e-06 0)
(-4.4821489e-10 6.1248879e-06 0)
(-1.156078e-09 6.1265535e-06 0)
(-2.3595239e-09 8.0876019e-06 0)
(-7.9081343e-09 -1.7057072e-06 0)
(-4.9991208e-10 -1.2505986e-05 0)
(3.440304e-10 -1.2506559e-05 0)
(7.8681118e-09 -1.7071244e-06 0)
(2.2557169e-09 8.0861751e-06 0)
(1.1886815e-09 6.1259356e-06 0)
(4.2672741e-10 6.1275759e-06 0)
(-5.4968683e-09 8.0889945e-06 0)
(-3.5270497e-09 -1.7059935e-06 0)
(-5.089448e-09 -1.2508074e-05 0)
(4.9992615e-09 -1.2508671e-05 0)
(3.3918777e-09 -1.7074192e-06 0)
(5.5245743e-09 8.0875372e-06 0)
(-4.633011e-10 6.1269511e-06 0)
(-1.1312629e-09 6.1285803e-06 0)
(-2.1478212e-09 8.0903177e-06 0)
(-7.5718213e-09 -1.7062407e-06 0)
(-3.425736e-10 -1.2510129e-05 0)
(2.3019021e-10 -1.2510718e-05 0)
(7.5630029e-09 -1.7076957e-06 0)
(2.0586432e-09 8.0888501e-06 0)
(1.1647061e-09 6.1279447e-06 0)
(4.4277015e-10 6.1295456e-06 0)
(-5.2699089e-09 8.0916317e-06 0)
(-3.217651e-09 -1.706514e-06 0)
(-4.9077157e-09 -1.2512105e-05 0)
(4.860513e-09 -1.2512714e-05 0)
(3.1141011e-09 -1.7079722e-06 0)
(5.3112583e-09 8.0901426e-06 0)
(-4.7814323e-10 6.1289062e-06 0)
(-1.1071362e-09 6.1304928e-06 0)
(-1.9410464e-09 8.092879e-06 0)
(-7.2434919e-09 -1.7067508e-06 0)
(-1.8867895e-10 -1.2514047e-05 0)
(1.1882958e-10 -1.2514648e-05 0)
(7.264988e-09 -1.7082292e-06 0)
(1.8659275e-09 8.091386e-06 0)
(1.1412927e-09 6.1298467e-06 0)
(4.5839775e-10 6.1314024e-06 0)
(-5.049039e-09 8.0941162e-06 0)
(-2.9162373e-09 -1.7070116e-06 0)
(-4.7310849e-09 -1.2515916e-05 0)
(4.7250008e-09 -1.251653e-05 0)
(2.8428302e-09 -1.7084876e-06 0)
(5.1031794e-09 8.0926104e-06 0)
(-4.926837e-10 6.1307556e-06 0)
(-1.0837815e-09 6.1322942e-06 0)
(-1.7401467e-09 8.0952897e-06 0)
(-6.9247906e-09 -1.7072382e-06 0)
(-3.9523214e-11 -1.2517748e-05 0)
(9.6237638e-12 -1.2518354e-05 0)
(6.9745902e-09 -1.7087259e-06 0)
(1.6780644e-09 8.0937862e-06 0)
(1.1185174e-09 6.1316443e-06 0)
(4.7354884e-10 6.1331498e-06 0)
(-4.8351322e-09 8.0964525e-06 0)
(-2.6242278e-09 -1.7074865e-06 0)
(-4.5607073e-09 -1.2519511e-05 0)
(4.5925616e-09 -1.2520125e-05 0)
(2.5785703e-09 -1.7089668e-06 0)
(4.9008607e-09 8.0949442e-06 0)
(-5.0686868e-10 6.132502e-06 0)
(-1.061264e-09 6.1339879e-06 0)
(-1.5458717e-09 8.0975546e-06 0)
(-6.6169915e-09 -1.7077031e-06 0)
(1.039534e-10 -1.2521237e-05 0)
(-9.7538277e-11 -1.2521842e-05 0)
(6.6923679e-09 -1.7091872e-06 0)
(1.4955254e-09 8.0960542e-06 0)
(1.0964471e-09 6.1333403e-06 0)
(4.8817596e-10 6.1347914e-06 0)
(-4.6288634e-09 8.0986456e-06 0)
(-2.3427006e-09 -1.7079393e-06 0)
(-4.3973972e-09 -1.2522897e-05 0)
(4.4631959e-09 -1.2523507e-05 0)
(2.3218427e-09 -1.7094113e-06 0)
(4.7047772e-09 8.0971476e-06 0)
(-5.2065038e-10 6.1341483e-06 0)
(-1.0396318e-09 6.1355778e-06 0)
(-1.3587887e-09 8.0996789e-06 0)
(-6.3210363e-09 -1.708146e-06 0)
(2.4110685e-10 -1.2524521e-05 0)
(-2.0262401e-10 -1.2525121e-05 0)
(6.4188578e-09 -1.7096147e-06 0)
(1.3187306e-09 8.0981938e-06 0)
(1.0751369e-09 6.1349378e-06 0)
(5.0224447e-10 6.1363311e-06 0)
(-4.430726e-09 8.1007009e-06 0)
(-2.0724305e-09 -1.7083703e-06 0)
(-4.241689e-09 -1.2526082e-05 0)
(4.3370074e-09 -1.2526683e-05 0)
(2.0731365e-09 -1.7098228e-06 0)
(4.5153346e-09 8.0992245e-06 0)
(-5.3398898e-10 6.1356978e-06 0)
(-1.0189174e-09 6.1370678e-06 0)
(-1.179299e-09 8.1016684e-06 0)
(-6.0375726e-09 -1.708567e-06 0)
(3.7153655e-10 -1.2527607e-05 0)
(-3.0551179e-10 -1.2528198e-05 0)
(6.154536e-09 -1.7100101e-06 0)
(1.1480316e-09 8.1002091e-06 0)
(1.0546298e-09 6.1364401e-06 0)
(5.1573108e-10 6.1377731e-06 0)
(-4.2410498e-09 8.1026243e-06 0)
(-1.8139262e-09 -1.7087796e-06 0)
(-4.0938871e-09 -1.2529072e-05 0)
(4.2141561e-09 -1.2529661e-05 0)
(1.832876e-09 -1.7102031e-06 0)
(4.3328567e-09 8.1011792e-06 0)
(-5.4685315e-10 6.1371539e-06 0)
(-9.991397e-10 6.1384623e-06 0)
(-1.0076566e-09 8.1035288e-06 0)
(-5.766992e-09 -1.7089666e-06 0)
(4.950395e-10 -1.2530502e-05 0)
(-4.0603265e-10 -1.253108e-05 0)
(5.8997936e-09 -1.7103754e-06 0)
(9.8370173e-10 8.1021043e-06 0)
(1.0349569e-09 6.1378508e-06 0)
(5.2862273e-10 6.1391218e-06 0)
(-4.0600206e-09 8.1044217e-06 0)
(-1.5674665e-09 -1.7091677e-06 0)
(-3.9541101e-09 -1.2531877e-05 0)
(4.0948238e-09 -1.253245e-05 0)
(1.6014002e-09 -1.7105541e-06 0)
(4.1575805e-09 8.103016e-06 0)
(-5.5922013e-10 6.1385201e-06 0)
(-9.8030526e-10 6.1397656e-06 0)
(-8.4398546e-10 8.1052662e-06 0)
(-5.5094657e-09 -1.7093451e-06 0)
(6.1157117e-10 -1.2533216e-05 0)
(-5.0400083e-10 -1.2533777e-05 0)
(5.6549222e-09 -1.7107124e-06 0)
(8.2593283e-10 8.1038839e-06 0)
(1.0161377e-09 6.1391733e-06 0)
(5.4091535e-10 6.1403814e-06 0)
(-3.8876974e-09 8.1060992e-06 0)
(-1.3331333e-09 -1.7095349e-06 0)
(-3.8223276e-09 -1.2534502e-05 0)
(3.9791892e-09 -1.2535057e-05 0)
(1.3789528e-09 -1.7108778e-06 0)
(3.9896554e-09 8.1047393e-06 0)
(-5.7107554e-10 6.1398e-06 0)
(-9.624101e-10 6.1409821e-06 0)
(-6.8829737e-10 8.1068867e-06 0)
(-5.2649781e-09 -1.7097028e-06 0)
(7.2121207e-10 -1.2535754e-05 0)
(-5.9923577e-10 -1.2536297e-05 0)
(5.4201087e-09 -1.711023e-06 0)
(6.7483609e-10 8.1055524e-06 0)
(9.981811e-10 6.1404115e-06 0)
(5.5261265e-10 6.1415564e-06 0)
(-3.7240317e-09 8.1076629e-06 0)
(-1.1108435e-09 -1.7098816e-06 0)
(-3.6983929e-09 -1.2536957e-05 0)
(3.8674112e-09 -1.2537491e-05 0)
(1.1656785e-09 -1.7111758e-06 0)
(3.8291472e-09 8.1063538e-06 0)
(-5.8241269e-10 6.1409974e-06 0)
(-9.4544116e-10 6.1421162e-06 0)
(-5.405084e-10 8.1083964e-06 0)
(-5.0333581e-09 -1.7100402e-06 0)
(8.2413964e-10 -1.2538126e-05 0)
(-6.915765e-10 -1.2538648e-05 0)
(5.195436e-09 -1.711309e-06 0)
(5.3044623e-10 8.1071143e-06 0)
(9.8108631e-10 6.1415689e-06 0)
(5.6372496e-10 6.142651e-06 0)
(-3.5688836e-09 8.1091186e-06 0)
(-9.0037683e-10 -1.7102083e-06 0)
(-3.582069e-09 -1.2539249e-05 0)
(3.7596181e-09 -1.2539761e-05 0)
(9.61625e-10 -1.7114501e-06 0)
(3.676044e-09 8.107864e-06 0)
(-5.9323194e-10 6.1421159e-06 0)
(-9.2937784e-10 6.143172e-06 0)
(-4.0045434e-10 8.109801e-06 0)
(-4.8143062e-09 -1.7103578e-06 0)
(9.2060456e-10 -1.2540339e-05 0)
(-7.8089158e-10 -1.2540839e-05 0)
(4.9808872e-09 -1.7115721e-06 0)
(3.9272754e-10 8.1085744e-06 0)
(9.6484422e-10 6.1426493e-06 0)
(5.7426818e-10 6.1436695e-06 0)
(-3.4220373e-09 8.1104724e-06 0)
(-7.0140201e-10 -1.7105156e-06 0)
(-3.4730519e-09 -1.2541386e-05 0)
(3.6559011e-09 -1.2541875e-05 0)
(7.6674815e-10 -1.7117023e-06 0)
(3.5302633e-09 8.1092746e-06 0)
(-6.0353973e-10 6.1431593e-06 0)
(-9.1419326e-10 6.1441538e-06 0)
(-2.6790536e-10 8.1111064e-06 0)
(-4.6074205e-09 -1.7106561e-06 0)
(1.010911e-09 -1.2542401e-05 0)
(-8.670843e-10 -1.2542879e-05 0)
(4.7763538e-09 -1.711814e-06 0)
(2.6158109e-10 8.1099372e-06 0)
(9.4943836e-10 6.1436564e-06 0)
(5.8426282e-10 6.144616e-06 0)
(-3.2832161e-09 8.1117297e-06 0)
(-5.1349931e-10 -1.7108038e-06 0)
(-3.3709893e-09 -1.2543375e-05 0)
(3.5563115e-09 -1.2543841e-05 0)
(5.8091994e-10 -1.711934e-06 0)
(3.3916608e-09 8.1105903e-06 0)
(-6.1334801e-10 6.1441311e-06 0)
(-8.9985541e-10 6.1450655e-06 0)
(-1.4257875e-10 8.1123182e-06 0)
(-4.4122186e-09 -1.7109357e-06 0)
(1.0954004e-09 -1.2544319e-05 0)
(-9.5009525e-10 -1.2544774e-05 0)
(4.5816446e-09 -1.7120362e-06 0)
(1.3685255e-10 8.1112072e-06 0)
(9.3484626e-10 6.1445938e-06 0)
(5.9373315e-10 6.1454944e-06 0)
(-3.1520946e-09 8.1128961e-06 0)
(-3.3618075e-10 -1.7110737e-06 0)
(-3.2754963e-09 -1.2545225e-05 0)
(3.4608605e-09 -1.2545667e-05 0)
(4.039374e-10 -1.7121467e-06 0)
(3.2600389e-09 8.1118154e-06 0)
(-6.226731e-10 6.145035e-06 0)
(-8.8632848e-10 6.1459112e-06 0)
(-2.415066e-11 8.1134416e-06 0)
(-4.2281571e-09 -1.7111972e-06 0)
(1.1744379e-09 -1.2546101e-05 0)
(-1.0299025e-09 -1.2546533e-05 0)
(4.3964964e-09 -1.7122401e-06 0)
(1.8340339e-11 8.1123889e-06 0)
(9.2104034e-10 6.1454649e-06 0)
(6.0270622e-10 6.1463085e-06 0)
(-3.0283108e-09 8.1139767e-06 0)
(-1.6890775e-10 -1.7113258e-06 0)
(-3.1861683e-09 -1.2546942e-05 0)
(3.3695205e-09 -1.254736e-05 0)
(2.3553247e-10 -1.7123419e-06 0)
(3.1351547e-09 8.1129543e-06 0)
(-6.3153519e-10 6.1458744e-06 0)
(-8.7357372e-10 6.1466943e-06 0)
(8.7733737e-11 8.1144816e-06 0)
(-4.0546488e-09 -1.7114412e-06 0)
(1.2484017e-09 -1.2547755e-05 0)
(-1.10652e-09 -1.2548163e-05 0)
(4.2205839e-09 -1.7124272e-06 0)
(-9.4196721e-11 8.1134867e-06 0)
(9.0798902e-10 6.1462731e-06 0)
(6.1121135e-10 6.1470619e-06 0)
(-2.9114756e-09 8.1149764e-06 0)
(-1.1106025e-11 -1.7115608e-06 0)
(-3.1025909e-09 -1.2548534e-05 0)
(3.2822276e-09 -1.2548929e-05 0)
(7.5381635e-11 -1.7125208e-06 0)
(3.016729e-09 8.1140113e-06 0)
(-6.399574e-10 6.1466526e-06 0)
(-8.6155027e-10 6.1474185e-06 0)
(1.934511e-10 8.1154431e-06 0)
(-3.8910768e-09 -1.7116683e-06 0)
(1.3176746e-09 -1.2549286e-05 0)
(-1.1799956e-09 -1.2549671e-05 0)
(4.0535308e-09 -1.7125986e-06 0)
(-2.0103191e-10 8.1145045e-06 0)
(8.9565766e-10 6.1470218e-06 0)
(6.1927934e-10 6.147758e-06 0)
(-2.8011817e-09 8.1158999e-06 0)
(1.378214e-10 -1.7117792e-06 0)
(-3.0243487e-09 -1.2550007e-05 0)
(3.1988857e-09 -1.2550379e-05 0)
(-7.6884182e-11 -1.7126846e-06 0)
(2.9044529e-09 8.1149905e-06 0)
(-6.4796524e-10 6.1473726e-06 0)
(-8.502161e-10 6.1480869e-06 0)
(2.9339255e-10 8.1163305e-06 0)
(-3.7368073e-09 -1.7118792e-06 0)
(1.3826369e-09 -1.2550701e-05 0)
(-1.250407e-09 -1.2551064e-05 0)
(3.894919e-09 -1.7127555e-06 0)
(-3.0246361e-10 8.1154465e-06 0)
(8.8400931e-10 6.1477138e-06 0)
(6.2694192e-10 6.1483998e-06 0)
(-2.6970109e-09 8.1167513e-06 0)
(2.7848354e-10 -1.7119817e-06 0)
(-2.9510311e-09 -1.2551366e-05 0)
(3.1193699e-09 -1.2551716e-05 0)
(-2.2167054e-10 -1.7128344e-06 0)
(2.797996e-09 8.1158957e-06 0)
(-6.5558604e-10 6.1480376e-06 0)
(-8.3952844e-10 6.1487026e-06 0)
(3.8795677e-10 8.1171479e-06 0)
(-3.5911991e-09 -1.7120745e-06 0)
(1.4436619e-09 -1.2552006e-05 0)
(-1.3178591e-09 -1.2552348e-05 0)
(3.7442988e-09 -1.7128988e-06 0)
(-3.9880906e-10 8.1163164e-06 0)
(8.7300547e-10 6.1483522e-06 0)
(6.3423152e-10 6.1489905e-06 0)
(-2.5985409e-09 8.1175348e-06 0)
(4.1149264e-10 -1.712169e-06 0)
(-2.8822376e-09 -1.2552619e-05 0)
(3.0435308e-09 -1.2552948e-05 0)
(-3.5941088e-10 -1.7129712e-06 0)
(2.6970114e-09 8.1167306e-06 0)
(-6.6284829e-10 6.1486503e-06 0)
(-8.294444e-10 6.1492686e-06 0)
(4.7754493e-10 8.1178992e-06 0)
(-3.4536125e-09 -1.7122547e-06 0)
(1.5011112e-09 -1.2553207e-05 0)
(-1.3824793e-09 -1.2553529e-05 0)
(3.6011967e-09 -1.7130295e-06 0)
(-4.9039866e-10 8.1171177e-06 0)
(8.6260678e-10 6.1489397e-06 0)
(6.4118061e-10 6.1495326e-06 0)
(-2.5053495e-09 8.118254e-06 0)
(5.3745659e-10 -1.7123416e-06 0)
(-2.8175809e-09 -1.255377e-05 0)
(2.9711989e-09 -1.2554079e-05 0)
(-4.9055859e-10 -1.7130957e-06 0)
(2.6011427e-09 8.1174987e-06 0)
(-6.6978131e-10 6.1492133e-06 0)
(-8.1992155e-10 6.1497873e-06 0)
(5.6255572e-10 8.118588e-06 0)
(-3.3234159e-09 -1.7124206e-06 0)
(1.5553329e-09 -1.2554309e-05 0)
(-1.4444142e-09 -1.2554612e-05 0)
(3.465124e-09 -1.7131485e-06 0)
(-5.7757086e-10 8.1178538e-06 0)
(8.5277342e-10 6.1494787e-06 0)
(6.478215e-10 6.1500288e-06 0)
(-2.4170202e-09 8.1189124e-06 0)
(6.5697335e-10 -1.7125001e-06 0)
(-2.7566902e-09 -1.2554824e-05 0)
(2.9021888e-09 -1.2555115e-05 0)
(-6.155799e-10 -1.7132088e-06 0)
(2.510028e-09 8.1182031e-06 0)
(-6.7641483e-10 6.1497291e-06 0)
(-8.1091811e-10 6.1502612e-06 0)